<?xml version="1.0"?>
<VTKFile type="UnstructuredGrid"  version="0.1"  >
<UnstructuredGrid>
<Piece  NumberOfPoints="294" NumberOfCells="461">
<Points>
<DataArray  type="Float64"  NumberOfComponents="3"  format="ascii">0 1 0  0 0 0  1 0 0  1 1 0  0.8968458805257912 0.5501332934257217 0  0.9 0.5 0  0.8968458805257911 0.4498667065742781 0  0.8874332644514524 0.4005240451340579 0  0.8719105943553006 0.3527501789261288 0  0.8505226720175453 0.3072985303593135 0  0.823606797749979 0.2648858990830106 0  0.7915874509685645 0.2261811576285244 0  0.7549695958994758 0.1917947028896841 0  0.7143307179915988 0.162268829799194 0  0.6703117166260287 0.138069179013592 0  0.6236067977499788 0.1195773934819385 0  0.5749525258342897 0.1070850997085245 0  0.5251162078117251 0.1007893086286913 0  0.4748837921882747 0.1007893086286913 0  0.4250474741657101 0.1070850997085245 0  0.376393202250021 0.1195773934819386 0  0.3296882833739712 0.1380691790135921 0  0.2856692820084015 0.1622688297991939 0  0.2450304041005242 0.1917947028896843 0  0.2084125490314353 0.2261811576285246 0  0.1763932022500209 0.2648858990830109 0  0.1494773279824546 0.3072985303593139 0  0.1280894056446994 0.3527501789261288 0  0.1125667355485475 0.4005240451340581 0  0.1031541194742088 0.4498667065742783 0  0.09999999999999998 0.5 0  0.1031541194742089 0.5501332934257218 0  0.1125667355485476 0.5994759548659421 0  0.1280894056446995 0.6472498210738713 0  0.1494773279824546 0.6927014696406861 0  0.176393202250021 0.7351141009169893 0  0.2084125490314355 0.7738188423714756 0  0.2450304041005241 0.8082052971103157 0  0.2856692820084012 0.837731170200806 0  0.3296882833739709 0.8619308209864078 0  0.3763932022500212 0.8804226065180615 0  0.4250474741657101 0.8929149002914756 0  0.4748837921882746 0.8992106913713087 0  0.5251162078117254 0.8992106913713087 0  0.5749525258342899 0.8929149002914755 0  0.623606797749979 0.8804226065180614 0  0.6703117166260291 0.8619308209864078 0  0.7143307179915986 0.8377311702008061 0  0.754969595899476 0.8082052971103157 0  0.7915874509685646 0.7738188423714755 0  0.823606797749979 0.7351141009169893 0  0.8505226720175454 0.6927014696406861 0  0.8719105943553006 0.6472498210738712 0  0.8874332644514524 0.599475954865942 0  0 0.5 0  1 0.5 0  0.5 0 0  0.5 1 0  0 0.75 0  0 0.25 0  1 0.25 0  1 0.75 0  0.75 0 0  0.25 0 0  0.25 1 0  0.75 1 0  0 0.625 0  0 0.375 0  1 0.375 0  1 0.625 0  0.625 0 0  0.375 0 0  0.375 1 0  0.625 1 0  0.125 0 0  0.875 0 0  1 0.125 0  0 0.875 0  0.125 1 0  0.875 1 0  0 0.125 0  1 0.875 0  0.1443946775413214 0.1213187937376868 0  0.8556053224586788 0.8786812062623132 0  0.8556053224586785 0.1213187937376867 0  0.1275360334547992 0.8724639665452008 0  0.9261623581710797 0.1875 0  0.09234641934319709 0.2082689144241477 0  0.9076535806568029 0.7917310855758523 0  0.08970099689351971 0.7603836651344988 0  0.2182130526099624 0.9079579669686324 0  0.07086411995581518 0.07086411995581518 0  1 0.0625 0  0.9375 0 0  0.0625 1 0  0 0.9375 0  0.9291358800441849 0.9291358800441849 0  0.7304772975931939 0.08076335202639119 0  0.2695227024068061 0.08076335202639115 0  0.7697819974699807 0.9105968468121929 0  1 0.6875 0  1 0.3125 0  0.06784168511078095 0.2966417331842567 0  0 0.6875 0  0.1875 0 0  0.8125 0 0  0.9212459744619301 0.2681742056774029 0  0.6875 1 0  0.3125 1 0  0.922097136530977 0.07790286346902295 0  0.9261304603587264 0.7150772115644075 0  0 0.8125 0  0.07432186328509671 0.9256781367149033 0  0.06317182982585627 0.84375 0  0.8548473925302104 0.1928285354262928 0  0.6710199663399635 0.9319471281137308 0  0.2914274450692525 0.9272721924131209 0  0.9226595291420543 0.8597667107019437 0  0.0773404708579461 0.1402332892980563 0  0.8125 1 0  0.06054886616517211 0.65625 0  0.9362657027224049 0.3336129027547622 0  0.1841195715992005 0.8363784907223111 0  0.6625377124131507 0.06023416665880475 0  0.3125 0 0  0.34375 0.06016090820395464 0  0.2153846372786545 0.1270381302276244 0  0.8024953780019808 0.07187189600048093 0  0.1546395545758083 0.9367961467266345 0  0.5625 1 0  0.4375 0 0  0.4375 1 0  0.5625 0 0  0.1844766880788185 0.06724298999790632 0  0.9369725282473387 0.6419809811402504 0  0.791523351719164 0.1369023590147849 0  0.8285961364903059 0.9374018659319692 0  1 0.4375 0  0 0.4375 0  1 0.5625 0  0 0.5625 0  0 0.3125 0  1 0.8125 0  0.0625 0 0  0 0.0625 0  0 0.1875 0  1 0.1875 0  1 0.9375 0  0.9375 1 0  0.6875 0 0  0.1875 1 0  0.8126465958421825 0.8329348088176629 0  0.1550798535647612 0.1867680086445373 0  0.8631981559835366 0.06032295929500282 0  0.1449089435554358 0.7884432695884597 0  0.3538206140027237 0.9399564250283491 0  0.944997661525766 0.4151121561005554 0  0.05500233847423393 0.5848878438994446 0  0.0520912947951912 0.40625 0  0.59375 0.05063263303723638 0  0.6113142584645842 0.9411585052804305 0  0.402402637527157 0.05243074290023167 0  0.05237021982595785 0.7146869946988353 0  0.9514280734197595 0.53125 0  0.04857192658024048 0.46875 0  0.1138995451272664 0.2618291859344329 0  0.1276043399716366 0.06698080255494471 0  0.9496852823490703 0.5873315358652272 0  0.7164226875694513 0.8936714072472519 0  0.728445758907293 0.9483406189827143 0  0.05037626111865807 0.3500677784994627 0  0.9425695009311538 0.1320174568820216 0  0.4108317852857326 0.9488345682840208 0  0.5398628985995173 0.04893133705064829 0  0.46875 0.04573672429098317 0  0.4652931800096448 0.9529811055869081 0  0.53125 0.9542632757090168 0  0.8785971272885281 0.7441734326495726 0  0.8518416617605847 0.7931754903661554 0  0.04183404050302509 0.78125 0  0.7612395846848441 0.8595654412716175 0  0.2310588911243982 0.8579303197600836 0  0.04148050284378633 0.21875 0  0.9494864361787021 0.7612608042848362 0  0.9500000000000001 0.4721339993173143 0  0.04999999999999998 0.5278660006826856 0  0.8781553628189985 0.9246252444972441 0  0.8731991046476956 0.2435858407989878 0  0.09811738497342513 0.6912987895906199 0  0.78125 0.9600244726998853 0  0.09951704281279977 0.8094116423849811 0  0.1723930843372325 0.8914409560171174 0  0.21875 0.9592823984315264 0  0.8808053857873319 0.8333253975559158 0  0.8963977713581862 0.1485308906960134 0  0.9538351164349618 0.2296733193971382 0  0.9502525126806526 0.8180081280125184 0  0.2312490385075739 0.04727387874777968 0  0.2715914187620846 0.8835921407480765 0  0.8075381809024645 0.880775593205643 0  0.71875 0.03518728418751645 0  0.28125 0.03518728418751642 0  0.7646042202168328 0.04444036111707996 0  0.9023329991729737 0.03666350737326187 0  0.03401531498238862 0.15625 0  0.1188530488980251 0.1590855287670435 0  0.9585274478449393 0.2940602659505009 0  0.122777080947294 0.7293581095092172 0  0.9670375667902916 0.09375 0  0.2005134857209875 0.1810792546569654 0  0.04567406045797464 0.8878541658538743 0  0.09375 0.966869578205468 0  0.1562008719445321 0.03232788333739163 0  0.8953932105853648 0.3139420780646932 0  0.7990572522972532 0.1815363722387022 0  0.0968875242781685 0.03463409819727443 0  0.03223722036876893 0.09375 0  0.9004223587754672 0.9633108159792649 0  0.9677627796312311 0.90625 0  0.1015654613822437 0.1029847255361322 0  0.9612688796250578 0.9612688796250578 0  0 0.03125 0  0.03125 0 0  0.04144949962501476 0.9585505003749852 0  0.9558898336496962 0.04411016635030385 0  0.9068917513393455 0.6748714165270275 0  0.1368346895292699 0.830580202512584 0  0.1467284198982532 0.2310130441636 0  0.07053058491102715 0.2523250971165124 0  0.28125 1 0  0.2618257196382527 0.9585732837283344 0  0.08628220552312613 0.8784418410901162 0  0.6885162251696433 0.09694521726220126 0  0.7451861497985837 0.1260293295250874 0  0.313422114933215 0.09491014745286984 0  0.2604190570795071 0.1249189143540631 0  0.9242490330121279 0.3761177923443456 0  0.8294827367589617 0.1534479284350518 0  0 0.28125 0  0.1085704015556412 0.3026527142683792 0  0.6454377779583714 0.9642341400769985 0  0.1781431459447619 0.145856637207233 0  0.9118639212665761 0.2270478094042325 0  0.9675029085737417 0.7231519194735394 0  0.9540854621793986 0.6818714685662951 0  0.3411855214203015 0.9011195850022233 0  0.2203778463487443 0.08657146517086198 0  0.046875 0.03776989505905362 0  0.5692124642834736 0.9350661676969988 0  0.1143804055696223 0.9319617439078584 0  0.08871656954519293 0.3663659127109965 0  0.9630811790855398 0.168250321868886 0  0.8941478109554366 0.1077225817667272 0  0.1809487890749314 0.1065207191757739 0  0.7685953432959879 0.09339992494635127 0  0.9613334331586147 0.8673647296762501 0  0.84375 0 0  0.8276419188889859 0.03874003995670209 0  0.4987074584280061 0.9312004428379874 0  0.4999999999999999 0.07012294039149713 0  0.906353444207591 0.8962759602721756 0  0.8371081671403779 0.2279385523514643 0  0.060982293117454 0.1847248153131282 0  0.84375 1 0  0.8601163332513452 0.9625346208269469 0  0.07696867235812772 0.6190771663714262 0  0.03866375363197156 0.624370156890833 0  0.386395970129115 0.9182613855572013 0  0.59375 1 0  0.03763634871355165 0.2725691404761272 0  1 0.34375 0  0.9619513789393942 0.3638256452123659 0  0.2993345649440622 0.9643978827856838 0  0.2538310577764953 0.9213648041061823 0  0.4376701674058487 0.06983678836603174 0  0.6249880952696493 0.07804203554412367 0  0.8891633930840495 0.7080603551933189 0  0 0.65625 0  0.8857454763750297 0.2783067670731572 0  1 0.65625 0  0 0.59375 0  0.9147359581367025 0.7498372322849914 0  0.34375 1 0  0.08374602148840722 0.3298670767773806 0  0.8370204413255111 0.08803482611562097 0  0.446698600077945 0.9219240257308261 0  0.3763243110806382 0.08093997073896844 0  1 0.78125 0  0.3070162313025067 0.8898632873717548 0  0.891027260700638 0.1971556622156984 0  0.1814462944911871 0.9630031969500565 0  0.2392799093765882 0.1552630478969785 0  0.630525566101238 0.03837025329843378 0  0.03868210398538065 0.9229107410752692 0  </DataArray>
</Points>
<Cells>
<DataArray  type="UInt32"  Name="connectivity"  format="ascii">16 159 173  82 241 253  31 157 185  110 183 281  87 152 227  4 163 167  6 156 184  8 121 213  123 200 232  14 15 232  16 17 173  18 174 274  130 174 274  71 124 125  22 235 291  67 138 158  27 239 283  87 165 227  29 158 164  85 122 191  120 265 266  120 162 188  39 40 245  37 122 181  42 258 285  40 41 267  43 176 248  44 45 160  115 160 240  99 136 189  61 183 243  88 177 178  52 134 225  30 31 185  5 6 184  127 257 284  90 128 191  113 210 231  76 92 208  106 187 242  104 133 197  48 151 180  28 29 158  52 53 134  159 275 292  155 172 267  91 216 247  86 171 194  11 214 261  92 208 224  85 128 191  150 192 290  96 217 220  82 166 219  83 136 186  133 197 246  126 235 291  99 180 199  49 151 178  105 256 257  35 36 154  85 190 226  106 195 242  114 187 261  87 182 228  145 204 262  88 183 281  110 225 244  103 120 162  35 154 207  90 192 290  93 203 224  109 203 224  112 210 231  154 190 226  112 210 293  94 211 223  135 233 254  97 200 232  19 161 286  20 21 234  99 168 169  46 115 168  134 225 244  110 243 244  121 206 213  106 195 206  102 165 239  170 250 283  89 188 207  89 162 188  98 197 246  82 205 241  62 149 200  62 200 202  106 206 213  101 121 206  115 168 169  65 119 189  116 230 272  109 171 252  171 194 252  50 51 177  110 225 276  111 113 179  77 111 113  112 211 223  112 231 249  77 113 210  135 214 237  84 252 284  45 115 160  45 46 115  37 38 181  38 181 198  88 178 193  142 196 255  87 152 205  118 204 262  136 186 264  186 217 264  31 32 157  32 157 265  6 7 156  7 156 236  36 122 154  36 37 122  123 275 292  70 132 159  124 125 201  63 124 201  19 20 286  98 201 234  152 209 241  152 205 241  12 135 233  127 135 254  78 128 249  112 211 249  73 160 240  130 161 274  71 130 161  41 172 267  57 131 175  132 159 173  56 132 173  133 166 212  104 133 212  4 53 167  139 163 167  11 12 214  12 135 214  119 136 189  83 151 199  137 156 184  68 137 156  138 158 164  54 138 164  53 134 167  55 139 163  140 157 185  157 265 266  67 158 170  88 183 196  110 183 243  143 215 247  80 144 216  145 182 262  59 145 182  86 195 242  76 171 208  96 186 217  81 147 218  3 147 220  3 148 220  123 149 200  70 159 292  90 128 290  64 150 192  151 180 199  48 49 151  23 24 209  24 152 209  109 153 203  84 194 252  89 154 190  89 154 207  72 131 172  72 155 172  68 156 271  156 236 271  140 157 280  28 158 250  158 170 250  15 16 275  16 159 275  129 248 268  129 176 248  125 161 286  71 125 161  58 111 179  58 103 162  4 5 163  55 137 184  29 30 164  54 140 185  25 165 227  25 26 165  91 166 219  74 143 215  69 139 167  69 134 167  46 47 168  99 168 180  65 107 169  107 115 169  67 141 170  102 141 170  76 171 251  86 171 251  172 175 285  131 172 175  56 174 259  56 130 174  17 18 259  18 174 259  57 176 258  57 129 176  42 43 258  43 176 258  49 50 178  50 177 178  83 151 193  151 178 193  58 162 179  89 162 179  47 168 180  47 48 180  90 192 273  90 181 198  59 238 269  59 182 269  142 196 287  55 163 184  5 163 184  54 164 185  30 164 185  83 186 260  96 186 260  8 9 213  9 10 278  33 120 188  33 34 188  65 169 189  99 169 189  113 179 190  89 179 190  122 181 191  90 181 191  192 230 273  64 192 230  88 117 193  83 193 260  114 187 289  84 135 237  76 146 251  60 146 195  117 196 255  88 117 196  63 104 197  125 201 234  116 198 288  116 155 245  83 136 199  99 136 199  97 233 254  97 200 202  98 197 201  63 197 201  62 105 202  153 257 284  75 153 203  75 93 203  80 145 204  91 118 216  118 205 262  82 205 219  60 195 206  60 101 206  34 188 207  34 35 207  109 171 208  109 208 224  126 209 241  22 23 291  112 223 293  95 223 293  78 211 249  78 94 211  74 212 215  74 104 212  9 213 278  106 213 278  114 214 237  114 214 261  166 212 215  91 166 215  118 204 216  80 204 216  148 217 220  79 148 217  117 193 260  81 142 255  118 205 219  91 118 219  96 218 220  147 218 220  143 222 247  91 215 247  221 222 247  1 221 222  0 94 223  0 95 223  2 93 224  2 92 224  51 225 276  51 52 225  122 154 226  85 122 226  24 152 227  24 25 227  87 165 228  102 165 228  116 230 273  108 229 272  229 230 272  64 229 230  113 190 231  85 190 231  12 13 233  13 14 232  13 232 233  97 232 233  98 234 235  98 235 246  21 234 235  21 22 235  7 8 236  8 121 236  84 194 237  114 194 237  102 141 269  141 238 269  26 165 239  26 27 239  107 115 240  73 107 240  133 246 253  126 246 253  187 242 289  86 242 289  100 243 244  61 100 243  100 244 279  116 245 288  39 245 288  126 235 246  126 241 253  144 216 247  144 221 247  43 44 248  44 160 248  85 231 249  85 128 249  27 250 283  27 28 250  146 195 251  86 195 251  153 252 284  109 153 252  82 166 253  133 166 253  97 202 254  127 202 254  81 218 255  117 255 260  75 153 256  153 256 257  127 202 257  105 202 257  57 175 258  175 258 285  56 173 259  17 173 259  218 255 260  96 218 260  10 187 261  10 11 261  87 205 262  87 182 262  79 263 264  79 217 264  119 263 264  119 136 264  32 33 265  33 120 265  66 266 277  155 245 267  40 245 267  160 248 268  73 160 268  182 228 269  102 228 269  121 236 271  101 121 270  121 270 271  68 270 271  116 155 272  108 272 282  90 198 273  116 198 273  18 19 274  19 161 274  123 232 275  15 232 275  88 177 281  51 177 276  120 266 277  103 120 277  10 187 278  106 187 278  134 244 279  69 134 279  157 266 280  66 266 280  177 276 281  110 276 281  155 272 282  72 155 282  102 170 283  102 239 283  84 135 284  127 135 284  41 172 285  41 42 285  20 234 286  125 234 286  183 196 287  61 183 287  38 198 288  38 39 288  114 194 289  86 194 289  78 150 290  78 128 290  23 209 291  126 209 291  70 149 292  123 149 292  77 95 293  77 210 293  </DataArray>
<DataArray  type="UInt32"  Name="offsets"  format="ascii">3 6 9 12 15 18 21 24 27 30 33 36 39 42 45 48 51 54 57 60 63 66 69 72 75 78 81 84 87 90 93 96 99 102 105 108 111 114 117 120 123 126 129 132 135 138 141 144 147 150 153 156 159 162 165 168 171 174 177 180 183 186 189 192 195 198 201 204 207 210 213 216 219 222 225 228 231 234 237 240 243 246 249 252 255 258 261 264 267 270 273 276 279 282 285 288 291 294 297 300 303 306 309 312 315 318 321 324 327 330 333 336 339 342 345 348 351 354 357 360 363 366 369 372 375 378 381 384 387 390 393 396 399 402 405 408 411 414 417 420 423 426 429 432 435 438 441 444 447 450 453 456 459 462 465 468 471 474 477 480 483 486 489 492 495 498 501 504 507 510 513 516 519 522 525 528 531 534 537 540 543 546 549 552 555 558 561 564 567 570 573 576 579 582 585 588 591 594 597 600 603 606 609 612 615 618 621 624 627 630 633 636 639 642 645 648 651 654 657 660 663 666 669 672 675 678 681 684 687 690 693 696 699 702 705 708 711 714 717 720 723 726 729 732 735 738 741 744 747 750 753 756 759 762 765 768 771 774 777 780 783 786 789 792 795 798 801 804 807 810 813 816 819 822 825 828 831 834 837 840 843 846 849 852 855 858 861 864 867 870 873 876 879 882 885 888 891 894 897 900 903 906 909 912 915 918 921 924 927 930 933 936 939 942 945 948 951 954 957 960 963 966 969 972 975 978 981 984 987 990 993 996 999 1002 1005 1008 1011 1014 1017 1020 1023 1026 1029 1032 1035 1038 1041 1044 1047 1050 1053 1056 1059 1062 1065 1068 1071 1074 1077 1080 1083 1086 1089 1092 1095 1098 1101 1104 1107 1110 1113 1116 1119 1122 1125 1128 1131 1134 1137 1140 1143 1146 1149 1152 1155 1158 1161 1164 1167 1170 1173 1176 1179 1182 1185 1188 1191 1194 1197 1200 1203 1206 1209 1212 1215 1218 1221 1224 1227 1230 1233 1236 1239 1242 1245 1248 1251 1254 1257 1260 1263 1266 1269 1272 1275 1278 1281 1284 1287 1290 1293 1296 1299 1302 1305 1308 1311 1314 1317 1320 1323 1326 1329 1332 1335 1338 1341 1344 1347 1350 1353 1356 1359 1362 1365 1368 1371 1374 1377 1380 1383 </DataArray>
<DataArray  type="UInt8"  Name="types"  format="ascii">5 5 5 5 5 5 5 5 5 5 5 5 5 5 5 5 5 5 5 5 5 5 5 5 5 5 5 5 5 5 5 5 5 5 5 5 5 5 5 5 5 5 5 5 5 5 5 5 5 5 5 5 5 5 5 5 5 5 5 5 5 5 5 5 5 5 5 5 5 5 5 5 5 5 5 5 5 5 5 5 5 5 5 5 5 5 5 5 5 5 5 5 5 5 5 5 5 5 5 5 5 5 5 5 5 5 5 5 5 5 5 5 5 5 5 5 5 5 5 5 5 5 5 5 5 5 5 5 5 5 5 5 5 5 5 5 5 5 5 5 5 5 5 5 5 5 5 5 5 5 5 5 5 5 5 5 5 5 5 5 5 5 5 5 5 5 5 5 5 5 5 5 5 5 5 5 5 5 5 5 5 5 5 5 5 5 5 5 5 5 5 5 5 5 5 5 5 5 5 5 5 5 5 5 5 5 5 5 5 5 5 5 5 5 5 5 5 5 5 5 5 5 5 5 5 5 5 5 5 5 5 5 5 5 5 5 5 5 5 5 5 5 5 5 5 5 5 5 5 5 5 5 5 5 5 5 5 5 5 5 5 5 5 5 5 5 5 5 5 5 5 5 5 5 5 5 5 5 5 5 5 5 5 5 5 5 5 5 5 5 5 5 5 5 5 5 5 5 5 5 5 5 5 5 5 5 5 5 5 5 5 5 5 5 5 5 5 5 5 5 5 5 5 5 5 5 5 5 5 5 5 5 5 5 5 5 5 5 5 5 5 5 5 5 5 5 5 5 5 5 5 5 5 5 5 5 5 5 5 5 5 5 5 5 5 5 5 5 5 5 5 5 5 5 5 5 5 5 5 5 5 5 5 5 5 5 5 5 5 5 5 5 5 5 5 5 5 5 5 5 5 5 5 5 5 5 5 5 5 5 5 5 5 5 5 5 5 5 5 5 5 5 5 5 5 5 5 5 5 5 5 5 5 5 5 5 5 5 5 5 5 5 5 5 5 5 5 5 5 5 5 5 5 5 5 5 5 5 5 5 5 </DataArray>
</Cells>
<CellData  Scalars="detF"> 