<?xml version="1.0"?>
<VTKFile type="UnstructuredGrid"  version="0.1"  >
<UnstructuredGrid>
<Piece  NumberOfPoints="3274" NumberOfCells="6242">
<Points>
<DataArray  type="Float64"  NumberOfComponents="3"  format="ascii">1.642535339105654e-19 10 0  3.595626100113218e-19 -8.98906525028304e-20 0  10 -3.175046457944951e-19 0  10 10 0  5.529440433719825 5.050417439372909 0  5.530777344396038 5.016113028561545 0  5.524616660805832 4.934317292003446 0  5.512338251020528 4.868175369352703 0  5.495401514909283 4.810660373379648 0  5.456802658888962 4.732149186912212 0  5.438513387930035 4.703432344242288 0  5.381410740812091 4.633188529274892 0  5.345720198650836 4.599802472351895 0  5.276388709312262 4.550322940698533 0  5.224371402209336 4.518342489143862 0  5.156809678582596 4.494966841924853 0  5.073169325699955 4.473093606657459 0  5.039650120843068 4.474194280893587 0  4.984720333003226 4.467976533584692 0  4.905775093555072 4.478907699879727 0  4.842370691395042 4.494498298721005 0  4.777546387423551 4.518588876742459 0  4.716392581406176 4.555145251610717 0  4.643385616437628 4.606451143007007 0  4.622019610560404 4.632554196657613 0  4.579037415423542 4.674759536485673 0  4.536448408829358 4.747067243488869 0  4.50684923538368 4.806142568985444 0  4.483782823446716 4.883422940936563 0  4.47561606892539 4.928424174751946 0  4.469041762882807 5.023934075557456 0  4.47492774637298 5.067018914895088 0  4.477917371421077 5.10237225085146 0  4.505280305016401 5.186905517916239 0  4.543435072580417 5.268373282116815 0  4.562425984933095 5.297906993157945 0  4.62409939928328 5.372713693428107 0  4.651064424076191 5.396634769747541 0  4.719946527141462 5.450715487571369 0  4.792020343831086 5.486715760360906 0  4.823203057725639 5.499046444828778 0  4.898500466097977 5.520734059008588 0  4.970967943333831 5.528395228266915 0  5.032526340486152 5.529680379115473 0  5.112998100352081 5.517428207935149 0  5.145742578823952 5.508699138679833 0  5.221938844826201 5.482637675829422 0  5.295701159395814 5.43807674769116 0  5.324715626401211 5.418083025458861 0  5.386366119332922 5.361527084375236 0  5.425893410381677 5.311481383961193 0  5.472968144673446 5.240417577474191 0  5.487434599453565 5.208252334609265 0  5.512517609964763 5.12710297711198 0  10 5 0  5 4.677435970714701e-18 0  9.679793836430602e-18 5 0  5 10 0  2.693735402255296e-18 2.5 0  2.909323290447774e-18 7.5 0  10 7.5 0  7.5 10 0  10 2.5 0  7.5 1.856119885541984e-18 0  2.5 2.987087522478342e-18 0  2.5 10 0  7.391989312806699 7.392210789992931 0  2.717340656834914 2.567222291526817 0  2.717260150531823 7.432782939217607 0  7.391560299074236 2.608114061679296 0  4.643150360895758 7.855682820625296 0  4.643464703218663 2.144064371863062 0  2.150878260734491 5.177135332313997 0  7.864164127453275 5.471421708463001 0  6.214852265940782 8.675548609687839 0  6.196432598887804 1.343958306246846 0  8.56947101521731 3.884966054908499 0  8.704650396824228 1.295330797061228 0  1.330293994176351 8.669631916787703 0  1.330357769352025 1.330343539275044 0  8.704696347374666 8.704709214500454 0  1.401662205785017 3.642968427180885 0  3.120004287757722e-18 6.25 0  5.841193104987877 7.105787060593878 0  5.923424482400507 2.928996311539883 0  1.540927501012576 6.538911773417768 0  3.414455963311601 8.741148962013991 0  3.75 4.281509664348471e-18 0  7.014509491871894 4.059391894122669 0  8.681341039566682 6.714975439961917 0  2.94639693664384 4.029699328793429 0  3.166924425383501 1.267881603484289 0  3.13965764499637 6.070492902719698 0  6.634579494286276 6.230768844931411 0  8.68929861001185 2.636677113000172 0  7.438848301580313 1.303776272014436 0  1.798001404858087e-18 3.75 0  1.25 2.013374127191939e-18 0  1.544624020668523e-18 1.25 0  2.50818356818079e-18 8.75 0  1.25 10 0  10 1.25 0  6.25 7.881721520208319e-18 0  8.75 3.033226899926954e-18 0  6.25 10 0  10 3.75 0  10 6.25 0  10 8.75 0  8.75 10 0  3.75 10 0  3.937893185642381 3.22359022256127 0  7.44743726921624 8.675141055488442 0  4.043071124500614 6.757785186134757 0  1.208414091479386 2.493722747038228 0  4.389103547302248 0.9735607779607763 0  1.014957125409869 5.57351216275555 0  9.000410534037972 5.712377761156946 0  1.13567077219434 7.583239434993615 0  2.397105192495255 8.496071278721182 0  6.770754812458534 5.109809757686422 0  5.002697157442029 3.226856614118394 0  4.951596460191586 6.753000077509174 0  4.442212365002577 9.015187552658057 0  0.9920988920257563 4.566721078099079 0  3.253040928537736 4.935329015156202 0  8.418988283158271 7.693192472489888 0  7.662879305583699 6.474781859441988 0  3.703140290774025 2.176268396740547 0  8.618135925760372 4.827594007206535 0  3.607996934836067 7.727457331127384 0  5.331540840744391 0.9614757091753902 0  5.287282041461742 8.587065009336408 0  2.227900759783315 0.9579497358138307 0  7.976409423334458 3.244621151813513 0  1.957734849670268 2.013901426678407 0  1.896940569817177 9.351553841006526 0  9.353281928362481 1.896881099396187 0  8.10327950455944 9.353394587790874 0  9.35328397315539 8.103146343778702 0  8.103132334667304 0.6467262513615742 0  8.045737309920312 1.939485032253021 0  5.525351678800495 2.057229187658035 0  6.797899051543832 1.980163231521129 0  6.571084530900818 7.785976350454782 0  6.85983510034209 9.336110259382462 0  9.349185564754306 0.6508013619734729 0  0.6837921731686262 9.316199768270213 0  0.6838344494752382 0.6838231967984413 0  9.349246048497969 9.349203883262653 0  6.826630690872272 0.675031590888493 0  0.6564097640308542 6.850637355871601 0  7.608914970310021 4.668086303439108 0  2.055954330699015 4.324403031631439 0  1.976360703716987 3.00446789856823 0  2.736097958108766e-18 3.125 0  10 3.125 0  6.683212714786882 3.286243940180984 0  9.323227257717939 4.307449030912323 0  0.6506323485773811 1.825471766584448 0  5.712617555151295 9.336640812988479 0  6.023520302217813 3.909408381355632 0  3.537143979456872e-18 8.125 0  3.81944701471286 4.02492982421859 0  1.939621285336536 7.81479825072094 0  2.248194269318074 5.973990251639409 0  2.527493849497847 6.676117650560542 0  6.55391140853266 6.981611047267413 0  3.29228270529741 6.785620241421041 0  9.16118206376119 3.284218132947963 0  5.377310086625838 7.735587420282861 0  5.692240134964399 6.268723000597017 0  9.114950573508899 7.368338352163516 0  2.749746336827503 9.210704919978316 0  4.064448325238169 8.350314821779062 0  7.219290262005805 5.845283478233958 0  6.359467468367122 4.563759011906628 0  3.163770704674948 3.306386781444936 0  8.330640663958658 6.057679013833313 0  7.794462532961751 3.944523758839412 0  2.560964766459535 1.635026576220315 0  10 6.875 0  5.46466712562635 3.684424409555002 0  0.6579999173848862 8.417192655148689 0  3.943398771843108 6.0064981153424 0  2.840896281669434 5.493310408536019 0  3.662263481983032 5.439187152745685 0  0.7965633330921137 3.123597967041845 0  7.790100178854786 8.039874804805137 0  2.979981658206374 8.070129490722024 0  8.010552339851321 7.100908811726722 0  2.8217596110383 0.6384379695262767 0  3.692723390281861 0.7655119071422106 0  3.904894608004874 1.480156730470528 0  1.723555455714985 7.178152087894099 0  4.539712938277374 3.68587350536824 0  9.281265239089269 6.349533848303764 0  2.251101689179132 3.677491215207156 0  6.290117840326909 5.561530722514169 0  0.7273875915027911 3.91506770110662 0  5.051318546066682 9.285768807521908 0  0.7110323401736846 6.181999588998893 0  1.875 7.135880338230957e-19 0  1.569571313364069 0.6584836056512116 0  6.15360417126896 2.044292655736186 0  4.220186573978665 2.638796830247529 0  5.048263639072156 1.60116743974746 0  9.306531918319509 4.950652499559375 0  7.22719213250089e-18 4.375 0  5.957343874973065 0.6676413933048648 0  3.362809686880671 2.708913285268602 0  4.564933083041691 6.264883285026075 0  3.125 10 0  8.696805515213986 1.992245375577937 0  9.351401623769403 2.667430874943376 0  8.040968700154915 2.580234455266318 0  6.539858777157352 2.643557998829613 0  7.129564342064876 6.782803434005482 0  8.069464131566731 1.297826457314119 0  7.475369809426971 0.6522370844184274 0  3.821729423919327 9.288743011795971 0  5.625 10 0  2.013625094965801e-18 1.875 0  10 4.375 0  2.74162449681989e-18 6.875 0  6.875 5.036899171397737e-18 0  0.625 8.400530112889258e-19 0  2.451045622506315e-18 0.625 0  0.625 10 0  6.875 10 0  8.125 2.746230820622448e-18 0  10 8.125 0  10 0.625 0  10 1.875 0  3.125 5.550602340322637e-18 0  1.875 10 0  5.625 5.997947767829649e-18 0  4.375 10 0  10 5.625 0  8.833874619943009e-18 5.625 0  4.375 8.696345422816978e-18 0  9.375 5.159188404936013e-19 0  8.125 10 0  1.325914475384335e-18 9.375 0  10 9.375 0  9.375 10 0  4.190916753344682 7.41252229607107 0  3.499366902325666 4.451435251609244 0  7.326389440486304 3.239875892219923 0  5.974297909620074 8.00443318139051 0  8.074252623984082 8.712524329447794 0  6.82802630822033 8.682769260236817 0  7.480238346717319 9.352674644811 0  1.630700799817108 4.785191353132198 0  6.808875055460263 1.327995037088169 0  2.586623633782183 4.724079253955631 0  7.417210676834094 1.972115516951582 0  1.571423550306939 5.915895959321419 0  9.365679551136747 8.72545184725935 0  8.724416453227986 9.335721696622201 0  8.725385280985973 0.634363264010996 0  9.335592607586896 1.275652606211381 0  3.078044438171378 2.057635655256535 0  7.156734080521657 8.075047214157109 0  1.288929814179963 9.380353206214357 0  0.5378317887182771 7.793004548169399 0  5.397913041615188 2.725508550419337 0  8.199325760647872 4.384965627272132 0  1.246220511870108 1.910977244361676 0  0.6004644818993605 2.410957886818918 0  6.28654435575151 9.388568418224686 0  2.575949531483186 3.121764228100691 0  1.390696082416204 3.079380886138801 0  6.992781247410992 4.582519781569199 0  0.5869637868877478 1.251154860870637 0  8.574521378843633 3.1984533204233 0  0.6479079522283602 5.077836309168902 0  1.557981106273084 5.321858350419848 0  6.057536264507108 5.970619820654324 0  4.855019255829486 0.606513483240131 0  4.443953279729858 1.572977832180973 0  1.162611277690282 8.1393
[...]
<CellData  Scalars="dens"> 
<DataArray  type="Float64"  Name="dens"  format="ascii">1.2355289721968099e+00   1.0840419467325524e+00   1.0026390548859379e+00   1.1029992606063805e+00   1.0834882635376812e+00   1.0244045510636042e+00   9.8660572650265133e-01   9.6568049049694993e-01   1.2225523265109592e+00   1.1502139745148809e+00   9.5501144906678959e-01   9.5749646203912375e-01   1.0484569941295963e+00   1.0021954027795030e+00   9.6626382657725385e-01   1.1214550999717945e+00   1.2061957993682750e+00   9.7925448505931978e-01   1.0049576209449163e+00   9.6139797229758850e-01   1.0096961811235834e+00   1.1103433665225033e+00   1.1264873397684314e+00   1.0476424129644175e+00   1.1463416876138626e+00   9.5821483120409634e-01   2.9724544536732727e+00   1.1833342623891943e+00   1.1321419027520654e+00   9.6048044040081648e-01   1.0094984070627786e+00   1.0219354023231040e+00   9.9044419791723504e-01   1.0092290276606417e+00   1.0796304235532892e+00   9.6694848437916592e-01   1.0756466102450328e+00   1.2972244715236931e+00   9.6597065865374077e-01   1.0463352551781067e+00   1.0048258701423045e+00   1.0843495140296942e+00   1.0069319467585283e+00   1.0533948297949374e+00   1.1786990925797876e+00   1.0037732119209331e+00   9.5895343358513407e-01   1.1790049471534751e+00   1.0749409663537748e+00   1.2786089506963598e+00   1.6657871437496219e+00   9.6694993326799061e-01   9.7823009266181760e-01   1.0385358489819132e+00   9.7388004202468448e-01   9.6349342467630372e-01   9.5757812927868569e-01   9.8695843709523834e-01   1.0199332712354732e+00   1.0928753393396888e+00   1.0764632485225893e+00   1.6868926431768207e+00   1.0935167298410451e+00   9.7025365213733450e-01   9.5954556506832400e-01   1.0541705984728773e+00   1.2627876049603488e+00   1.0030514153224923e+00   1.2793889503818494e+00   2.9663038858535056e+00   9.5279143919257347e-01   9.7381517450695021e-01   9.5760432131258255e-01   9.5169425275401975e-01   9.6023700115429889e-01   9.5872756005118032e-01   9.6249090558656847e-01   9.7933189772946827e-01   9.6430859540953306e-01   1.0938395795625817e+00   9.6854658049545028e-01   9.5964616615744780e-01   9.6641989856219290e-01   9.6269798299584242e-01   9.5322475706636800e-01   9.5440452113846130e-01   1.0263718574397993e+00   9.6884156594347637e-01   9.6154643724009847e-01   9.6476513842225808e-01   1.0953671407674916e+00   3.0099477265222014e+00   9.6097448547018660e-01   9.6122559285500042e-01   9.7327994487291369e-01   1.0182241115092636e+00   1.0234023865610000e+00   1.0956644416662278e+00   9.6712815183962952e-01   9.5845805822254138e-01   9.4920618586956884e-01   9.6635508604774156e-01   9.5378114811222459e-01   9.6736760549040102e-01   9.4775044152287491e-01   9.6697241863423689e-01   9.5151632481088699e-01   9.5669019657510623e-01   9.5626806281236298e-01   9.5754932057366926e-01   9.5870988325021655e-01   1.0341031743618612e+00   9.8923607404620573e-01   9.5645299725475552e-01   9.5995369508842709e-01   9.6089440142164340e-01   9.9459258363864256e-01   9.6268655237864698e-01   9.6226180303388920e-01   9.7498526370454341e-01   9.7119109012636284e-01   9.9421096530827568e-01   9.7601899086685129e-01   9.5916467359059820e-01   9.5260448189062930e-01   9.6341469098665933e-01   9.6298058213753734e-01   9.5926913942215897e-01   1.0660531950091932e+00   1.0180267881955174e+00   1.0685538569838600e+00   9.6579463999664172e-01   1.1073274156838382e+00   1.4828075725863166e+00   9.6027875242989880e-01   9.5327976208113308e-01   9.5209646654394009e-01   1.0166828136662207e+00   9.6633343428678098e-01   9.5905904476490134e-01   9.6131945230438298e-01   9.8966090916482841e-01   9.5338597493734922e-01   9.5682937632816334e-01   9.5379532014629487e-01   9.5618320082643438e-01   9.5592540380483926e-01   9.6018997982551801e-01   9.6820372468809879e-01   9.5164557668167227e-01   9.6331261430167614e-01   9.6947131583469170e-01   9.6365484540451518e-01   9.6659075410145490e-01   9.6738188386601387e-01   9.6133442946027126e-01   9.5729172152919084e-01   9.6155627278423328e-01   9.6224587970421860e-01   9.6053856923363012e-01   9.6489271379683617e-01   9.6175232549130907e-01   9.6833252640069023e-01   9.6186633612862138e-01   9.5991915830720187e-01   9.6345365487793078e-01   9.6032738322101641e-01   9.5912031451123725e-01   9.5812132281267659e-01   9.6293059504858125e-01   9.6061441521583080e-01   9.6264716597515321e-01   9.5952858731757695e-01   9.5828242519802520e-01   9.5512450977124008e-01   9.5283205738496479e-01   9.6983468599431233e-01   9.6863450035275445e-01   9.6321612252141375e-01   9.6129054291869798e-01   9.6744462954390409e-01   9.6011059012952027e-01   9.5520106320612130e-01   9.5758287815636556e-01   9.4872120010336281e-01   1.0106882579259682e+00   1.0350902068862931e+00   9.6173681314710280e-01   9.6463913466636075e-01   9.5952096859987224e-01   9.6073131900865549e-01   9.5774470590141891e-01   9.5453657574538842e-01   9.6854702824567240e-01   9.7332592732874657e-01   9.5433182252743098e-01   9.6805497523333339e-01   9.6641943080646431e-01   9.5219200999596043e-01   1.1265429591260445e+00   1.0718701630916343e+00   9.6135394358451332e-01   9.6079300374305954e-01   1.1996569032582745e+00   9.8325054098740783e-01   9.5766586877613402e-01   9.6217748359852673e-01   9.6347134653440625e-01   9.6515106738497136e-01   9.6730175659732631e-01   9.6430194427291271e-01   9.8277444839494099e-01   9.9451293692178933e-01   9.7154991150630265e-01   9.6239406688944318e-01   9.6045461562707179e-01   9.5681794016157951e-01   9.9162415849363161e-01   1.0246592129840733e+00   2.9778263252745778e+00   1.1502694367814896e+00   9.5434686727860851e-01   9.5542058441621269e-01   9.6431004486802463e-01   9.7377374648154447e-01   9.5890321740626816e-01   9.8063013247461273e-01   1.1409405672367277e+00   1.0060460304982810e+00   9.6033553289069973e-01   9.6266429072809800e-01   9.6747647196712194e-01   9.6694494735689440e-01   9.7646515201783313e-01   9.6078563319904786e-01   9.5966819524788249e-01   9.6056766649422076e-01   9.5314858107246392e-01   1.0649652085285357e+00   1.0520359989206343e+00   9.6672474663393304e-01   9.6444946760264894e-01   1.0882750587693271e+00   1.2129802131581262e+00   1.0265358285192006e+00   9.9739141002339382e-01   1.2716988314022128e+00   1.0685214512589738e+00   9.5751837961825381e-01   9.5623700746728391e-01   9.6219181117038688e-01   9.5627216208491173e-01   9.5872021613336078e-01   9.5714054636088319e-01   9.6032443197629591e-01   9.6136213088876954e-01   9.5785133183681903e-01   9.5592211511056846e-01   9.5456045043481352e-01   9.6554297711913917e-01   9.6314981650604714e-01   9.5820401208836659e-01   9.6156414157130954e-01   1.4782206017196848e+00   1.0173468555484202e+00   9.6029726082340128e-01   9.5418522036065767e-01   9.7096460874004054e-01   9.8130294290918740e-01   1.1583978976353688e+00   1.1624733963529912e+00   9.5783718424784714e-01   9.5791208673034334e-01   9.5015475440979791e-01   9.5267201839778115e-01   9.6603304958062819e-01   9.6442128780871661e-01   9.6220847039539004e-01   9.6617128732200830e-01   9.6629891838222071e-01   9.6526801267298490e-01   9.6555023331084544e-01   1.0025676371479868e+00   9.9376678187821454e-01   9.6040753692288305e-01   9.5398017000740787e-01   9.5138115676347923e-01   9.4918882778539659e-01   9.5383921001036809e-01   9.5352270434701747e-01   9.6182298673304678e-01   9.7923926883971868e-01   1.1208018806024622e+00   1.0525555160556617e+00   9.5385266482796671e-01   9.5161844171278553e-01   9.6094727834125870e-01   9.6054024933054205e-01   9.5808555367569126e-01   9.5988866934320538e-01   9.6066806970230434e-01   9.6120101872186459e-01   9.7523641394841520e-01   9.6453559496662999e-01   9.6506010237231588e-01   9.6087827380079571e-01   9.6369275019765177e-01   9.5927923505036672e-01   9.5593257190467040e-01   9.5820918618331596e-01   9.5354861254111301e-01   9.6263416078503850e-01   9.4944716641648552e-01   9.5044335359976617e-01   9.5451967860913156e-01   9.5559212455658360e-01   9.7329546067121453e-01   9.7159137526358230e-01   9.7503523270470971e-01   9.7340386082965114e-01   9.5481713423458370e-01   9.5883081779961243e-01   9.6614228204136832e-01   9.6194404377562970e-01   9.5968550467909408e-01   9.7147942623049666e-01   9.6175299584928964e-01   9.7232527748970310e-01   9.5075434115992685e-01   9.5820425712478907e-01   9.6708533813206932e-01   9.4576275889747841e-01   9.5027452767307286e-01   9.5451988685942912e-01   9.5223956408037413e-01   9.7713569391194044e-01   9.6740600746975880e-01   9.6117386368359681e-01   9.7311536645122521e-01   9.7114274248513732e-01   9.7402758710445636e-01   9.7987439854126879e-01   9.7756488248386220e-01   1.0125189269627497e+00   9.9114091164827633e-01   9.6386851017386699e-01   9.5775925414657526e-01   9.7096743218162662e-01   9.5884145919157804e-01   9.5924094730878839e-01   9.6039598824024963e-01   9.6113387356306568e-01   9.6081882186129530e-01   9.5992367862651107e-01   9.5361260375894175e-01   9.5881108417436089e-01   9.5953404103456430e-01   9.6108262515376985e-01   9.7093971387492461e-01   9.7444864796240627e-01   9.5991152881136754e-01   9.5894142019920625e-01   9.5674555379401016e-01   9.5820478217784144e-01   9.6923794125682494e-01   9.6411437648930987e-01   9.6831041596205136e-01   9.6918159016689531e-01   9.6964328678170464e-01   9.6586844342333145e-01   9.6113505731418469e-01   9.6050733941022615e-01   9.5689637000091143e-01   9.5722075858837652e-01   9.6984225102221278e-01   9.5737733950321946e-01   9.6407931281090609e-01   1.0019266727706682e+00   1.0614254282948843e+00   9.6437664526985156e-01   9.5543620716215882e-01   9.6374876398715881e-01   9.5855330394566662e-01   9.6137943755299993e-01   9.5130108430481830e-01   9.6290362101944749e-01   9.6206717344288784e-01   9.6206320867269868e-01   9.5874261700721630e-01   9.8908220419237169e-01   9.7298351357070278e-01   9.7313047015981358e-01   9.6825865531870536e-01   9.5873277290157521e-01   9.5813855220124144e-01   9.5099262330567880e-01   9.6056866772183747e-01   9.5728659248486092e-01   9.8497377035116029e-01   9.9850868993110109e-01   9.5727228575608037e-01   9.6021746081959525e-01   9.6721243506547350e-01   9.6099611300667664e-01   9.6114180006830874e-01   9.6083939900919169e-01   9.5929676166481204e-01   9.6305826318175936e-01   9.6311689587849936e-01   9.6253827264915137e-01   9.6194001400613838e-01   9.5820646893990169e-01   9.5999405246989855e-01   9.6661109886210128e-01   9.6280942803189240e-01   9.6371605332979260e-01   9.6248628043084128e-01   1.0722235651249661e+00   1.4894660640524382e+00   9.7817141360537907e-01   1.0073962533418217e+00   9.6340592499552979e-01   9.6030965399539991e-01   9.5703358024958696e-01   9.5679854109825846e-01   9.5247526512475555e-01   9.6032020411659147e-01   9.7911779728221660e-01   9.8033008912262987e-01   1.1111266995796520e+00   1.1899100153717708e+00   9.5872093835628669e-01   9.5510543755393906e-01   1.0565933155666503e+00   1.0490265046384706e+00   1.0032421541462015e+00   9.7492010421135422e-01   9.5760625838873792e-01   9.5847446278325865e-01   9.6194470078411898e-01   9.6910546294415090e-01   9.6927000534855157e-01   9.7322431623668448e-01   9.5451903134215421e-01   9.5686965388363621e-01   1.0623951000077410e+00   1.0388018128890588e+00   9.8515597727927751e-01   9.9692155658991621e-01   9.5962747938807635e-01   9.5893448741009535e-01   9.6124650258508870e-01   9.6169997671031926e-01   9.5842000913012426e-01   9.5984635841662103e-01   9.7346480997377860e-01   9.6662635488286341e-01   9.5028681872164789e-01   9.5433586582268959e-01   9.5235406033821490e-01   9.5121009113009747e-01   9.4589092456955770e-01   9.5811653758929294e-01   9.6351140170465555e-01   9.6772216322185078e-01   1.0185198484494211e+00   1.0123355575241808e+00   9.7366164120095811e-01   9.8655781026088862e-01   9.6220084210181711e-01   9.5960874801112239e-01   9.7025242237901910e-01   9.6901769364032597e-01   9.7562790866987215e-01   9.7838137320057461e-01   9.6079168881385746e-01   9.6218008640868424e-01   9.5723092779672292e-01   9.6280603520363550e-01   9.5905205956046768e-01   9.5988544167875389e-01   9.7951175825837489e-01   1.0931015249408380e+00   9.6026439639413697e-01   9.6237994794184323e-01   9.6592712267504621e-01   9.5874538445430557e-01   9.5704950113229137e-01   9.5951006452306831e-01   9.5821490584262914e-01   9.5649771545304518e-01   9.5587495941929568e-01   9.6063938346243549e-01   9.6197704879101387e-01   9.6261331211209156e-01   9.6101910169489979e-01   9.8141489517813219e-01   9.6780935197114948e-01   9.6097289781080208e-01   9.7852733339276865e-01   9.5070996678650899e-01   9.5107076119800926e-01   9.6580167813638707e-01   9.6115108347188360e-01   9.5585089134805679e-01   9.6267536995972891e-01   9.4833842616513753e-01   9.4891100592838729e-01   9.5673671200710453e-01   9.6885981873355231e-01   1.0050874686863851e+00   1.0381227459516655e+00   1.0200588257952952e+00   9.5345546717303753e-01   9.5715861649534795e-01   9.6174957296223718e-01   9.6065577190897122e-01   9.5602254543600207e-01   9.6038181971972891e-01   9.5904335205320113e-01   9.5907657820899661e-01   9.6300141583525367e-01   9.5997095022245582e-01   9.5556687284797182e-01   9.5241266819823833e-01   9.7182211620542525e-01   9.7775440961523252e-01   9.9117999517314104e-01   9.7500016438970738e-01   9.6438752780408232e-01   9.6422645068294133e-01   9.6138908538070733e-01   9.6191097726017871e-01   9.6791689940811720e-01   9.7311813264031455e-01   9.5654547004153823e-01   9.6073921443666299e-01   9.5945210542660209e-01   9.5958992266582821e-01   9.5576301815219056e-01   9.5559427200862712e-01   9.7329441940266881e-01   9.7635600953188284e-01   1.0046394094929285e+00   1.0578068712807109e+00   1.1217617931688628e+00   1.1093377969653977e+00   9.5070871956915970e-01   9.5284924209718391e-01   9.5811315054200652e-01   9.5892987489518244e-01   9.8810328959361082e-01   9.7740331675789927e-01   9.6229458886179564e-01   9.5981816902593564e-01   9.7536908188030258e-01   9.7436714042892636e-01   9.6223325185039099e-01   9.6716115664593172e-01   1.0092921940151167e+00   9.9629777084759896e-01   9.6169126021260565e-01   9.5546915852962178e-01   1.0029127583385977e+00   9.7531657688266593e-01   1.0257184643134230e+00   9.9266705257934862e-01   9.6369554897189202e-01   9.7015248582918390e-01   9.7524528338280714e-01   9.8601733933787150e-01   9.7945189548448108e-01   1.0009302808928275e+00   9.7663268065063769e-01   9.7207246676472570e-01   9.7361967304923946e-01   9.6498344930104996e-01   9.6148868675104460e-01   9.6597160013028482e-01   9.6185068479612790e-01   9.6140032383172713e-01   9.5897625925142305e-01   9.6021575080776755e-01   9.6140625938127100e-01   9.6251331177425004e-01   9.6346018911971176e-01   9.6201251730722159e-01   9.6236705087352536e-01   9.5924323101219588e-01   9.6191433349366795e-01   9.7098335343534059e-01   9.6858994777394636e-01   9.7443077905845510e-01   9.5907055057449730e-01   9.5920257123264985e-01   9.6120516833839942e-01   9.6005614926691818e-01   9.6727138317307071e-01   9.6429336528095955e-01   9.5997078104745992e-01   9.6105981502898608e-01   9.6205656624290969e-01   9.6594111988004605e-01   9.6696274763870860e-01   9.6603720879968913e-01   9.6459561751496792e-01   9.6273739367862976e-01   9.6188321606994653e-01   9.6693487410655354e-01   9.6623112962251512e-01   9.5926434317073062e-01   9.6343027126611891e-01   9.6283551947419344e-01   9.6078176069088761e-01   9.5915274321737631e-01   9.6324921550466058e-01   9.5696403939388786e-01   9.5765919919344100e-01   9.5776468574146478e-01   9.5783561849339649e-01   9.7836493008305625e-01   9.8586636158248908e-01   9.5544759685033043e-01   9.5955420889428789e-01   9.5947429343423141e-01   9.7502726663016570e-01   9.8028800327730958e-01   9.7446671062078338e-01   9.7987368817710696e-01   9.7174924536131735e-01   9.8096745502867100e-01   9.7627917195509606e-01   9.7719681740131648e-01   9.8037610154766253e-01   9.8397354548031335e-01   1.2658841454336585e+00   1.0496500088265375e+00   9.5705698670911765e-01   9.5657067174196253e-01   9.5484571000903207e-01   9.5879242518230190e-01   9.5125430205454820e-01   9.5365419344274649e-01   9.4840088984699311e-01   9.5367001904776538e-01   1.0095602514098581e+00   9.7944501331526679e-01   9.5834250358536721e-01   9.5631000560426238e-01   9.5783706415615644e-01   9.6214877927077103e-01   9.5746826914343930e-01   9.5519447248009004e-01   9.5035567440376212e-01   9.5374509990596568e-01   9.5816023243187076e-01   9.5675124062259242e-01   9.6584917208288978e-01   9.7755011250765889e-01   9.9172971523494702e-01   9.5614121112284822e-01   9.5308956259123989e-01   9.6025907771903951e-01   9.5931705717408355e-01   9.6129651238038660e-01   9.6368836550857939e-01   9.6783467819485169e-01   9.6616786831059143e-01   9.6790343340580820e-01   9.6184589800928377e-01   9.6331624705303209e-01   1.0034983145985339e+00   9.9370547025386136e-01   1.0617552200225258e+00   1.0035085421988350e+00   9.6139187504719059e-01   9.5722794530966515e-01   9.6255997905145119e-01   9.7040524885859625e-01   1.0022874419486938e+00   9.9402404430633007e-01   9.7615054893160424e-01   9.9042783497062170e-01   9.5424843301334394e-01   9.5210085086451213e-01   9.6618688890497550e-01   9.6354768893981158e-01   9.7464718449252719e-01   9.6509096051764265e-01   9.6215058663195918e-01   9.5677064364293440e-01   9.6693431475939984e-01   9.5087561877969173e-01   9.5029667632245729e-01   9.5305878137022215e-01   9.4820628055250478e-01   9.6609254011223544e-01   9.6345047219006785e-01   9.6900959363964501e-01   9.7078477636811622e-01   9.5325261595040900e-01   2.8021148502333117e+00   1.1693854107573465e+00   1.2121880134282015e+00   1.1438192662930342e+00   9.5380998735087341e-01   9.5457983047224138e-01   9.4869638176245530e-01   9.6028362124737920e-01   9.5928356131115011e-01   9.6907987333870516e-01   9.6716734862277687e-01   9.6049430253471524e-01   9.6307817839006160e-01   1.1101067488942267e+00   1.1008258759935177e+00   9.5994902602718979e-01   9.6543820102003508e-01   9.6521880143173433e-01   9.7495710840491756e-01   9.6000621082409132e-01   9.6177815479223905e-01   9.8158277027452667e-01   9.9257044684085105e-01   9.6530935802626738e-01   9.6537506019159480e-01   9.5680216256167672e-01   9.6005836104596121e-01   9.6062077979447114e-01   9.5934002093069448e-01   9.5467841296474265e-01   9.5117016281334787e-01   9.5096916828892863e-01   9.4762745955509509e-01   9.5580768312268216e-01   9.5270752776513679e-01   9.5558969863131316e-01   9.5131054977001994e-01   9.5083952278251438e-01   9.5995156214309707e-01   9.6135719863512770e-01   9.5861869637777930e-01   9.6153776686177039e-01   9.6376192385145698e-01   9.5924746132783711e-01   9.6562740492632360e-01   9.9206171861567416e-01   9.7719606719744057e-01   9.7132327866802182e-01   9.5519560772001766e-01   9.5387998901886306e-01   9.8809183266295486e-01   9.8325987075312749e-01   9.6654644824645364e-01   9.6450178036892797e-01   9.5196103157261069e-01   9.5158821610732602e-01   9.5595868852770594e-01   9.5859934851751216e-01   9.5868735713631781e-01   9.5704052335995426e-01   9.6174133325086064e-01   9.6101057527554046e-01   1.0701434117273179e+00   1.0297771285438517e+00   9.6903652716551303e-01   9.6602763930713664e-01   9.6018490834268388e-01   9.5681327660099735e-01   9.5714926682374624e-01   9.6305136646068679e-01   9.5234482506069440e-01   9.5818981081400756e-01   9.7051558369820745e-01   1.0744320729683452e+00   1.1850467104370641e+00   9.7995309546436127e-01   9.7547003018101897e-01   9.7934057764926197e-01   9.7705352521378552e-01   9.5783704667159575e-01   9.5812767592421000e-01   1.2437797095046943e+00   1.2408281059187736e+00   9.7178552453067069e-01   9.6788509967646619e-01   9.6653767141911595e-01   9.7464308948045641e-01   9.5763340189056589e-01   9.5561697806568258e-01   9.6056838294048297e-01   9.6149839350971344e-01   9.7232274043547207e-01   9.7084654114463365e-01   9.8664547429499405e-01   9.9021927377894270e-01   9.88363830752369