<?xml version="1.0"?>
<VTKFile type="UnstructuredGrid"  version="0.1"  >
<UnstructuredGrid>
<Piece  NumberOfPoints="3274" NumberOfCells="6242">
<Points>
<DataArray  type="Float64"  NumberOfComponents="3"  format="ascii">0 10 0  0 0 0  10 0 0  10 10 0  5.992114701314478 5.125333233564304 0  6 5 0  5.992114701314478 4.874666766435696 0  5.968583161128631 4.751310112835145 0  5.929776485888252 4.631875447315323 0  5.876306680043863 4.518246325898284 0  5.809016994374947 4.412214747707527 0  5.728968627421411 4.315452894071311 0  5.637423989748689 4.22948675722421 0  5.535826794978997 4.155672074497985 0  5.425779291565072 4.09517294753398 0  5.309016994374947 4.048943483704846 0  5.187381314585724 4.017712749271311 0  5.062790519529313 4.001973271571728 0  4.937209480470687 4.001973271571728 0  4.812618685414275 4.017712749271311 0  4.690983005625053 4.048943483704846 0  4.574220708434928 4.09517294753398 0  4.464173205021003 4.155672074497985 0  4.362576010251311 4.229486757224211 0  4.271031372578588 4.315452894071312 0  4.190983005625053 4.412214747707528 0  4.123693319956137 4.518246325898285 0  4.070223514111748 4.631875447315322 0  4.031416838871369 4.751310112835146 0  4.007885298685522 4.874666766435696 0  4 5 0  4.007885298685522 5.125333233564304 0  4.031416838871369 5.248689887164855 0  4.070223514111749 5.368124552684678 0  4.123693319956137 5.481753674101715 0  4.190983005625053 5.587785252292473 0  4.271031372578589 5.684547105928689 0  4.36257601025131 5.770513242775789 0  4.464173205021003 5.844327925502015 0  4.574220708434927 5.904827052466019 0  4.690983005625053 5.951056516295154 0  4.812618685414275 5.982287250728689 0  4.937209480470687 5.998026728428272 0  5.062790519529313 5.998026728428272 0  5.187381314585725 5.982287250728689 0  5.309016994374947 5.951056516295154 0  5.425779291565073 5.90482705246602 0  5.535826794978997 5.844327925502015 0  5.63742398974869 5.770513242775789 0  5.728968627421412 5.684547105928688 0  5.809016994374947 5.587785252292473 0  5.876306680043863 5.481753674101715 0  5.929776485888252 5.368124552684678 0  5.968583161128631 5.248689887164855 0  10 5 0  5 0 0  0 5 0  5 10 0  0 2.5 0  0 7.5 0  10 7.5 0  7.5 10 0  10 2.5 0  7.5 0 0  2.5 0 0  2.5 10 0  7.485014227815469 7.485014227815468 0  2.624291547813317 2.470127454275751 0  2.624291547813306 7.529872545724244 0  7.485014227815469 2.514985772184531 0  4.620446423227826 8.004475929833612 0  4.620446423227826 1.995524070166387 0  2 5.188744001760954 0  8.009762413667167 5.50092484241762 0  6.25 8.749910705909175 0  6.231734626560344 1.268136995742228 0  8.652134543612291 3.848955432239774 0  8.735102992990898 1.264897007009102 0  1.298640613344511 8.70135938665549 0  1.298640613344514 1.298640613344514 0  8.735102992990898 8.735102992990898 0  1.32486817239184 3.602721496273811 0  0 6.25 0  5.927313115200329 7.301462900913446 0  6.018514784896791 2.73575273859121 0  1.46012754946627 6.586509713609103 0  3.375412750820398 8.805858133461292 0  3.75 0 0  7.210287463492858 3.959917668469034 0  8.746887821637173 6.757315261531288 0  2.75427163560592 3.930963631533782 0  3.125 1.20674210234345 0  2.943794974478871 6.190871022350711 0  6.825732469488118 6.378522665594295 0  8.743010011192087 2.591891574357684 0  7.483399585327811 1.251663284750698 0  0 3.75 0  1.25 0 0  0 1.25 0  0 8.75 0  1.25 10 0  10 1.25 0  6.25 0 0  8.75 0 0  6.25 10 0  10 3.75 0  10 6.25 0  10 8.75 0  8.75 10 0  3.75 10 0  3.810152138366983 3.022631036742028 0  7.492462995777718 8.727654225028648 0  3.920711873054401 6.96954794442357 0  1.160966450995929 2.452397487456289 0  4.375 0.9149815118452254 0  0.9534467980924162 5.587666637777538 0  9.059920331215721 5.729227516799859 0  1.092141083367926 7.622001080218721 0  2.347167458039906 8.552074467977752 0  7.035390514030324 5.128055916921455 0  5.003122498127488 2.963143307567926 0  4.942871952047775 7.021490037253216 0  4.428923243843399 9.074762154804601 0  0.9313086115777203 4.556301549197934 0  2.983895043982564 4.923718037128732 0  8.475490130958471 7.744627089847896 0  7.789009478636881 6.554228521251022 0  3.63520742506862 2.051437667164196 0  8.707401663528154 4.821324829872955 0  3.533550877963555 7.853698443855794 0  5.339287008234124 0.9027094569265255 0  5.297648561497755 8.677937622222498 0  2.1952343317288 0.9230673988174298 0  8.075984025010529 3.175487740708776 0  1.898758825823051 1.95534337194406 0  1.875 9.373178164734556 0  9.374824554239121 1.875 0  8.125 9.374824554239121 0  9.374824554239121 8.125 0  8.125 0.6251754457608796 0  8.102651320356042 1.882534099549675 0  5.555834842392044 1.91923664117996 0  6.865782670338777 1.884114931596786 0  6.64627760167333 7.901459339370077 0  6.882493169332692 9.367462718860255 0  9.360276396535061 0.639723603464939 0  0.6718845514179709 9.328115448582029 0  0.6718845514179738 0.671884551417974 0  9.360276396535061 9.360276396535061 0  6.849445628625583 0.6428340415263989 0  0.6252707365992336 6.872955555725 0  7.779789619335941 4.642347291880305 0  1.920367323438066 4.285936742177812 0  1.886879328762172 2.935805792644626 0  0 3.125 0  10 3.125 0  6.829064276033837 3.138852187255846 0  9.362544582254804 4.296332770792826 0  0.6294854495481924 1.803884990381194 0  5.723867456876992 9.374955352954586 0  6.234430185778811 3.68546536771353 0  0 8.125 0  3.586768667647489 3.83082576879668 0  1.876243471497236 7.875738773857043 0  2.107188557886428 6.033287377979783 0  2.401726318101464 6.769145918164444 0  6.677644360454483 7.133114086704463 0  3.153172063084042 6.930340955888605 0  9.202503567680719 3.256925918678836 0  5.40362522057331 7.894159836946178 0  5.847572751594044 6.541729111728994 0  9.151562748582334 7.399512082113663 0  2.72169183938259 9.244571098971553 0  4.027166877117502 8.450590314684476 0  7.406261223937218 5.924226876880179 0  6.656991742980741 4.461610746210265 0  3.019302513935811 3.171181436845406 0  8.42963329327514 6.099017498410762 0  7.929628714672585 3.883876234709687 0  2.505719997716461 1.570953349337789 0  10 6.875 0  5.582664826527307 3.385861901793781 0  0.6385265297852114 8.4375 0  3.716483847114921 6.223618070713637 0  2.631969561453143 5.546792065808645 0  3.362397364365777 5.548428728085521 0  0.7588267982127279 3.096534204957019 0  7.851992675295601 8.104156769365778 0  2.913279681839236 8.156884513848921 0  8.096891386573146 7.169818345867771 0  2.798761766443515 0.6104864041175854 0  3.671506264062989 0.7245683763958539 0  3.867863724792883 1.393871234092059 0  1.649817747458113 7.237052684909195 0  4.426192956891247 3.3850570800063 0  9.319293531819399 6.369901553367093 0  2.123193757988123 3.605425148679854 0  6.579499709872288 5.69442892829178 0  0.6870138590775676 3.897472165971907 0  5.052283494860724 9.328870130343036 0  0.6723431162417803 6.200433195389051 0  1.875 0 0  1.549291932862476 0.6390212382365446 0  6.21139096239505 1.923390547229892 0  4.152576989347208 2.459595351551795 0  5.050476204704109 1.495562853986229 0  9.348288366357405 4.949818072523935 0  0 4.375 0  5.971911740025946 0.6301946467015171 0  3.259489089776259 2.574035544092853 0  4.453321835805339 6.571835098730658 0  3.125 10 0  8.739169531583208 1.951644066391377 0  9.378669592542254 2.643950573017813 0  8.116435035031106 2.513805545071047 0  6.638595351572846 2.50537245267725 0  7.261010404021443 6.896819043068465 0  8.109268203102822 1.25668035103298 0  7.499070367747349 0.6259293959838862 0  3.803354572726946 9.327440761045327 0  5.625 10 0  0 1.875 0  10 4.375 0  0 6.875 0  6.875 0 0  0.625 0 0  0 0.625 0  0.625 10 0  6.875 10 0  8.125 0 0  10 8.125 0  10 0.625 0  10 1.875 0  3.125 0 0  1.875 10 0  5.625 0 0  4.375 10 0  10 5.625 0  0 5.625 0  4.375 0 0  9.375 0 0  8.125 10 0  0 9.375 0  10 9.375 0  9.375 10 0  4.124636214849647 7.585686737904448 0  3.226311222126587 4.344714271864214 0  7.453081909415364 3.138186203303845 0  6.023602759614032 8.127401266051624 0  8.113652109834199 8.753213411463918 0  6.871364138431048 8.74618709364416 0  7.503701808903232 9.378700745430104 0  1.522824227845408 4.775917933203273 0  6.852433445057831 1.263542672082663 0  2.395702172884109 4.69892519046945 0  7.484233723571037 1.89641294923239 0  1.476280462378535 5.950382956163246 0  9.382187377079948 8.742810580703335 0  8.742465815831727 9.352913573694233 0  8.742810580703335 0.6178126229200519 0  9.352913573694233 1.257534184168274 0  3.006155193467456 1.962367273432881 0  7.223215083845321 8.156989587839728 0  1.271719100451898 9.396653327112993 0  0.5179759976288465 7.8125 0  5.438213071062911 2.525234329686767 0  8.316148260887561 4.355807401641232 0  1.206821491497361 1.872776676101541 0  0.5769084626609742 2.389014696033135 0  6.303502337897015 9.421005435886736 0  2.458997820199305 3.025074747392433 0  1.3252158116452 3.032752655221394 0  7.222105560298839 4.528900906124603 0  0.5716884255903881 1.234925952412458 0  8.643913084898211 3.151617408172255 0  0.609052490321687 5.079138898173932 0  1.456399801971225 5.334887398767092 0  6.290704232717009 6.184739386752334 0  4.852836612747218 0.5704278826615091 0  4.421790344198421 1.47250102483893 0  1.126283477763049 8.174901644214513 0  1.129018063831073 7.078996263309201 0  4.725919873842514 8.575629199064023 0  3.250125771060453 9.44782441806348 0  8.544164743213932 5.572190078245881 0  2.394930872635468 8.015687177523562 0  1.862254413972926 1.386146389339021 0  8.365561237443726 8.274388495585752 0  5.193549842664885 6.532104764905914 0  5.514324218182338 6.960757910718654 0  1.795478788511246 8.434091254567177 0  2.849161950879783 8.728105463299293 0  9.184221647751215 3.791765304398627 0  7.489470574113465 5.401001875975131 0  6.528693214247355 4.975104456402571 0  9.252272670425468 6.887450909966467 0  5 3.484451236194627 0  4.913578495087319 2.439075971750351 0  5.574304159837545 1.38397330585346 0  7.917911770841194 6.01182996302364 0  4.647881031951949 7.469102910678543 0  1.358446282839421 4.174584348637395 0  3.490935334304721 4.795755635313538 0  6.410708101166638 
[...]
<CellData  Scalars="detF"> 
<DataArray  type="Float64"  Name="detF"  format="ascii">8.0936993182925376e-01   9.2247352882804390e-01   9.9736789139314153e-01   9.0661892143993272e-01   9.2294493041845704e-01   9.7617684240248082e-01   1.0135761157041214e+00   1.0355391973233186e+00   8.1796089894483204e-01   8.6940345201575575e-01   1.0471078655414781e+00   1.0443902819968223e+00   9.5378256390017790e-01   9.9780940645565297e-01   1.0349140395147027e+00   8.9169865117662839e-01   8.2905279600851989e-01   1.0211850088584722e+00   9.9506683581318112e-01   1.0401519753678685e+00   9.9039693196344114e-01   9.0062230310963265e-01   8.8771525848268018e-01   9.5452416552169916e-01   8.7234025492130884e-01   1.0436073075005490e+00   3.3642231212802237e-01   8.4506975905604576e-01   8.8328150169970010e-01   1.0411456162321138e+00   9.9059096379318223e-01   9.7853543162000312e-01   1.0096479964271179e+00   9.9085536839736543e-01   9.2624288662484255e-01   1.0341812580036827e+00   9.2967336156267866e-01   7.7087660767409094e-01   1.0352281314565863e+00   9.5571662624497977e-01   9.9519730703030063e-01   9.2221187639377300e-01   9.9311577432730846e-01   9.4931166521357258e-01   8.4839294973183221e-01   9.9624097168949921e-01   1.0428035032539689e+00   8.4817286171219652e-01   9.3028364468425051e-01   7.8209995280838362e-01   6.0031679542743921e-01   1.0341797083746729e+00   1.0222543831982773e+00   9.6289405992129173e-01   1.0268205085310225e+00   1.0378898022432910e+00   1.0443012109656988e+00   1.0132138927178584e+00   9.8045629866419848e-01   9.1501744435389709e-01   9.2896808262842911e-01   5.9280595243853917e-01   9.1448075069264023e-01   1.0306583209423004e+00   1.0421599936515735e+00   9.4861306267566992e-01   7.9189880869269380e-01   9.9695786748727022e-01   7.8162313321647647e-01   3.3711987661448461e-01   1.0495476332652953e+00   1.0268889068259872e+00   1.0442726476310236e+00   1.0507576326180312e+00   1.0414095674275228e+00   1.0430491848451884e+00   1.0389708559277995e+00   1.0211042878501657e+00   1.0370124302120414e+00   9.1421083921638002e-01   1.0324748650585913e+00   1.0420507425191250e+00   1.0347469060682282e+00   1.0387473721385356e+00   1.0490705288410542e+00   1.0477737456724849e+00   9.7430574771839362e-01   1.0321605050317808e+00   1.0399913735526636e+00   1.0365216985714927e+00   9.1293591233650606e-01   3.3223168335731695e-01   1.0406103545097964e+00   1.0403385089132231e+00   1.0274536172946369e+00   9.8210206249953080e-01   9.7713276139638428e-01   9.1268819354879638e-01   1.0339891338059419e+00   1.0433424722355593e+00   1.0535118869710050e+00   1.0348163055568542e+00   1.0484585504539006e+00   1.0337331892492474e+00   1.0551300808609161e+00   1.0341556602125339e+00   1.0509541181006528e+00   1.0452704580646277e+00   1.0457318809320291e+00   1.0443326296768698e+00   1.0430684167037079e+00   9.6702149726703424e-01   1.0108810487569133e+00   1.0455296840202652e+00   1.0417169131349444e+00   1.0406970823438038e+00   1.0054368154863722e+00   1.0387597058763909e+00   1.0392182219507489e+00   1.0256565275667970e+00   1.0296634824665543e+00   1.0058227427515138e+00   1.0245702279951028e+00   1.0425738431926774e+00   1.0497536165432531e+00   1.0379746223050352e+00   1.0384425382496190e+00   1.0424603053553629e+00   9.3803949435316558e-01   9.8229242255258309e-01   9.3584426602757986e-01   1.0354168045532717e+00   9.0307526557756423e-01   6.7439634008329041e-01   1.0413642887230299e+00   1.0490099966214226e+00   1.0503137393524284e+00   9.8359093569599998e-01   1.0348394917516925e+00   1.0426886701695564e+00   1.0402369343540232e+00   1.0104471043964913e+00   1.0488931306816360e+00   1.0451184137317191e+00   1.0484429718596420e+00   1.0458246904313886e+00   1.0461067317802539e+00   1.0414605661493324e+00   1.0328404802637421e+00   1.0508113782096655e+00   1.0380846104926376e+00   1.0314900334508854e+00   1.0377159465018080e+00   1.0345640031800247e+00   1.0337179315407812e+00   1.0402207279327726e+00   1.0446136506879913e+00   1.0399807357134190e+00   1.0392354190255266e+00   1.0410826093093319e+00   1.0363846526159550e+00   1.0397687361859531e+00   1.0327030980948437e+00   1.0396454917269082e+00   1.0417543929047941e+00   1.0379326446446453e+00   1.0413115542388456e+00   1.0426220619772764e+00   1.0437091589449066e+00   1.0384964452703349e+00   1.0410004099046548e+00   1.0388022064003155e+00   1.0421784334696724e+00   1.0435336949786531e+00   1.0469839165152490e+00   1.0495028921932865e+00   1.0311035627425111e+00   1.0323811506154519e+00   1.0381886023484501e+00   1.0402682179352054e+00   1.0336508875670165e+00   1.0415466825182074e+00   1.0469000072545058e+00   1.0442960320315045e+00   1.0540504416798639e+00   9.8942477282965413e-01   9.6609937312434868e-01   1.0397855071468962e+00   1.0366570918210463e+00   1.0421867084980900e+00   1.0408737388012546e+00   1.0441195799237657e+00   1.0476287922430940e+00   1.0324743877551288e+00   1.0274050777055321e+00   1.0478535624554806e+00   1.0329991845338813e+00   1.0347474068950715e+00   1.0502083503139692e+00   8.8767143045817376e-01   9.3294881640856897e-01   1.0401996129244455e+00   1.0408069127316684e+00   8.3357166310133723e-01   1.0170347824022268e+00   1.0442055341055099e+00   1.0393092927720755e+00   1.0379135856992394e+00   1.0361072310777732e+00   1.0338035604501497e+00   1.0370195828589808e+00   1.0175274719781244e+00   1.0055173370546533e+00   1.0292831980701722e+00   1.0390753999888040e+00   1.0411736106313669e+00   1.0451309052912703e+00   1.0084465887953882e+00   9.7593422996484924e-01   3.3581542063498032e-01   8.6936153219722934e-01   1.0478370436229070e+00   1.0466594673706204e+00   1.0370108714742881e+00   1.0269325945716001e+00   1.0428581131523307e+00   1.0197524702575758e+00   8.7646984314172038e-01   9.9399030430517521e-01   1.0413027173845235e+00   1.0387837272364842e+00   1.0336168671541435e+00   1.0341850409720432e+00   1.0241020869342168e+00   1.0408148971486839e+00   1.0420268223453000e+00   1.0410510731114813e+00   1.0491543709531832e+00   9.3899781137611216e-01   9.5053781527055903e-01   1.0344206078120262e+00   1.0368609591186977e+00   9.1888534239758035e-01   8.2441575645854193e-01   9.7415011947758423e-01   1.0026154125154789e+00   7.8634970427500539e-01   9.3587264796767622e-01   1.0443663759213508e+00   1.0457658427680268e+00   1.0392938168779717e+00   1.0457273981705697e+00   1.0430571747335482e+00   1.0447786417596365e+00   1.0413147543711390e+00   1.0401907542119537e+00   1.0440033507938593e+00   1.0461103307400030e+00   1.0476025898040173e+00   1.0356866796169646e+00   1.0382600742505790e+00   1.0436190909079379e+00   1.0399722252182593e+00   6.7648901580498344e-01   9.8294892695267733e-01   1.0413442178753649e+00   1.0480145559391767e+00   1.0299036556004209e+00   1.0190532976854050e+00   8.6326123522953080e-01   8.6023474011300693e-01   1.0440187710871360e+00   1.0439371356230780e+00   1.0524601338454220e+00   1.0496791977598081e+00   1.0351612715880865e+00   1.0368912555550518e+00   1.0392758230335268e+00   1.0350131629058825e+00   1.0348764559047645e+00   1.0359817033932748e+00   1.0356788963439294e+00   9.9743893872807321e-01   1.0062723148282384e+00   1.0412246484486887e+00   1.0482398182262371e+00   1.0511034330361535e+00   1.0535311528404245e+00   1.0483947289073283e+00   1.0487427257275543e+00   1.0396923485854985e+00   1.0212008768652430e+00   8.9221834590647919e-01   9.5006865172052135e-01   1.0483799405019811e+00   1.0508413416202131e+00   1.0406398171251936e+00   1.0410807883344397e+00   1.0437481247509726e+00   1.0417874821714901e+00   1.0409422687587442e+00   1.0403651062810229e+00   1.0253923927546196e+00   1.0367683735244597e+00   1.0362048928784795e+00   1.0407145496634622e+00   1.0376751301645692e+00   1.0424493343145234e+00   1.0460988875057646e+00   1.0436134556204191e+00   1.0487142310816211e+00   1.0388162406209327e+00   1.0532444936081244e+00   1.0521405575750937e+00   1.0476473376192093e+00   1.0464715795601838e+00   1.0274372381335974e+00   1.0292392722493144e+00   1.0256039643060273e+00   1.0273228207125462e+00   1.0473209624601432e+00   1.0429368575103430e+00   1.0350442358107892e+00   1.0395615072109607e+00   1.0420080277594550e+00   1.0293578772740128e+00   1.0397680114496921e+00   1.0284624118605104e+00   1.0517964070298045e+00   1.0436188240288393e+00   1.0340349094026238e+00   1.0573476176686727e+00   1.0523274810371792e+00   1.0476471090510329e+00   1.0501559037465016e+00   1.0233993151928806e+00   1.0336921543577040e+00   1.0403944986265088e+00   1.0276273856889324e+00   1.0297147435206255e+00   1.0266649664130696e+00   1.0205389603899153e+00   1.0229500035426122e+00   9.8763585881766913e-01   1.0089382733046415e+00   1.0374859116619708e+00   1.0441037198758931e+00   1.0299006607802914e+00   1.0429252828127851e+00   1.0424909432875689e+00   1.0412371690893019e+00   1.0404377865622942e+00   1.0407789452571330e+00   1.0417494872413517e+00   1.0486438581644253e+00   1.0429583225574695e+00   1.0421725100256012e+00   1.0404932664764421e+00   1.0299300622992325e+00   1.0262213427983324e+00   1.0417626728978586e+00   1.0428165672437681e+00   1.0452099788020572e+00   1.0436182521727402e+00   1.0317383971816925e+00   1.0372213342999435e+00   1.0327266788785534e+00   1.0317983855097759e+00   1.0313070936829263e+00   1.0353376868341364e+00   1.0404365051405160e+00   1.0411164589476467e+00   1.0450452435084978e+00   1.0446910924442450e+00   1.0310955198600606e+00   1.0445202311962987e+00   1.0372590581623022e+00   9.9807703215910992e-01   9.4212930399306472e-01   1.0369392549113219e+00   1.0466423529941415e+00   1.0376148197200947e+00   1.0432388015186296e+00   1.0401720287936478e+00   1.0511919060102506e+00   1.0385255368977404e+00   1.0394284594716650e+00   1.0394327430727139e+00   1.0430328038630134e+00   1.0110383098203077e+00   1.0277666435787289e+00   1.0276114361476871e+00   1.0327818858183579e+00   1.0430435135470866e+00   1.0436903908130881e+00   1.0515328673359947e+00   1.0410499879948001e+00   1.0446192476218290e+00   1.0152554617200442e+00   1.0014935373962564e+00   1.0446348597778239e+00   1.0414307600139330e+00   1.0338990316354928e+00   1.0405869352283763e+00   1.0404292061056233e+00   1.0407566561396113e+00   1.0424302884798127e+00   1.0383587766499114e+00   1.0382955633727702e+00   1.0389197275737871e+00   1.0395658621532493e+00   1.0436164150575356e+00   1.0416731201898315e+00   1.0345422281796726e+00   1.0386271372976996e+00   1.0376500386652692e+00   1.0389758486244254e+00   9.3264131896173297e-01   6.7138152666551387e-01   1.0223157067268653e+00   9.9265804958348192e-01   1.0379840667936935e+00   1.0413307789205983e+00   1.0448954149960001e+00   1.0451520952907736e+00   1.0498960304958889e+00   1.0413193388135682e+00   1.0213275693443089e+00   1.0200645793652769e+00   8.9998737351762670e-01   8.4039968323786574e-01   1.0430563889785132e+00   1.0470048234266549e+00   9.4643793905103457e-01   9.5326476078374522e-01   9.9676832344733302e-01   1.0257250780656879e+00   1.0442705352433614e+00   1.0433246151349278e+00   1.0395607971901719e+00   1.0318794375196185e+00   1.0317042665943199e+00   1.0275123456294775e+00   1.0476480480372348e+00   1.0450744215174044e+00   9.4126940155570527e-01   9.6264753063806729e-01   1.0150676878210876e+00   1.0030879494878353e+00   1.0420710343118436e+00   1.0428241064734411e+00   1.0403158787165323e+00   1.0398253345296873e+00   1.0433838927336403e+00   1.0418334051395655e+00   1.0272584994900187e+00   1.0345259002597553e+00   1.0523138701905048e+00   1.0478491229478686e+00   1.0500296493143153e+00   1.0512924634892562e+00   1.0572043499149393e+00   1.0437143716526276e+00   1.0378704374756629e+00   1.0333544461466979e+00   9.8181689981043030e-01   9.8781475427540133e-01   1.0270508333537254e+00   1.0136253442011236e+00   1.0392840623747688e+00   1.0420913753366592e+00   1.0306596272628119e+00   1.0319729005600324e+00   1.0249809288085616e+00   1.0220963188707328e+00   1.0408083371688477e+00   1.0393064813183546e+00   1.0446799940968472e+00   1.0386307973116287e+00   1.0426962645367748e+00   1.0417909852357896e+00   1.0209167899914282e+00   9.1482810807909454e-01   1.0413798572091948e+00   1.0390906441251311e+00   1.0352747909496445e+00   1.0430297931177790e+00   1.0448780327630844e+00   1.0421985521298909e+00   1.0436072262105192e+00   1.0454808033977896e+00   1.0461619379667721e+00   1.0409733529721601e+00   1.0395258403064525e+00   1.0388387397280818e+00   1.0405620431855638e+00   1.0189370519167578e+00   1.0332613525208114e+00   1.0406120737412115e+00   1.0219438597926345e+00   1.0518454996113020e+00   1.0514464756968844e+00   1.0354092591033826e+00   1.0404191569839216e+00   1.0461882800461471e+00   1.0387717720895180e+00   1.0544758837240942e+00   1.0538396053501653e+00   1.0452196382243291e+00   1.0321410596913314e+00   9.9493828264217210e-01   9.6327722699427243e-01   9.8033561860546992e-01   1.0488166825084819e+00   1.0447589174524872e+00   1.0397717120060157e+00   1.0409555943361959e+00   1.0460004366779254e+00   1.0412525304694262e+00   1.0427057315595958e+00   1.0426696081635367e+00   1.0384200724488613e+00   1.0416981886465086e+00   1.0464992335069128e+00   1.0499650344758507e+00   1.0289948986802215e+00   1.0227517157335262e+00   1.0088984895476207e+00   1.0256408527130261e+00   1.0369275536744109e+00   1.0371007757479802e+00   1.0401615903554833e+00   1.0395972430300262e+00   1.0331465445137920e+00   1.0276244645516450e+00   1.0454286088005567e+00   1.0408651848216250e+00   1.0422615098180112e+00   1.0421118192049255e+00   1.0462844669731357e+00   1.0464692278847942e+00   1.0274383373262541e+00   1.0242165667413194e+00   9.9538201522945413e-01   9.4535214995273864e-01   8.9145485796507817e-01   9.0143868056736887e-01   1.0518468795081399e+00   1.0494839643247647e+00   1.0437180613107104e+00   1.0428291225250510e+00   1.0120399461591532e+00   1.0231190981805292e+00   1.0391828152985900e+00   1.0418640032776652e+00   1.0252529207427965e+00   1.0263071880274923e+00   1.0392490574161544e+00   1.0339538484650810e+00   9.9079335590801421e-01   1.0037159865862708e+00   1.0398347592125619e+00   1.0466062573269315e+00   9.9709570118200230e-01   1.0253081140035862e+00   9.7492639041977491e-01   1.0073871167594386e+00   1.0376721165380902e+00   1.0307657967245281e+00   1.0253830672539392e+00   1.0141809480465305e+00   1.0209791870435403e+00   9.9907058372537416e-01   1.0239264155422230e+00   1.0287298881411830e+00   1.0270951046707397e+00   1.0362872033964035e+00   1.0400538391970982e+00   1.0352271224797145e+00   1.0396624089444384e+00   1.0401494312113722e+00   1.0427786823217084e+00   1.0414326146584916e+00   1.0401430095156305e+00   1.0389466698976337e+00   1.0379256053264367e+00   1.0394875139453588e+00   1.0391045693972127e+00   1.0424884613934648e+00   1.0395936157516283e+00   1.0298837734570818e+00   1.0324286374210692e+00   1.0262401614266037e+00   1.0426761612073121e+00   1.0425326515909170e+00   1.0403606149233091e+00   1.0416057443760787e+00   1.0338360230606278e+00   1.0370288088714961e+00   1.0416983722242699e+00   1.0405179619021314e+00   1.0394399197390958e+00   1.0352597890482016e+00   1.0341660032322519e+00   1.0351568147592471e+00   1.0367038599825307e+00   1.0387048499061509e+00   1.0396272471473105e+00   1.0341958148153449e+00   1.0349490606773120e+00   1.0424655175805062e+00   1.0379578365186948e+00   1.0385989920127814e+00   1.0408190922368374e+00   1.0425868111950616e+00   1.0381529347792775e+00   1.0449713456666250e+00   1.0442128064370073e+00   1.0440977986423026e+00   1.0440204777234376e+00   1.0221134969699979e+00   1.0143362619603169e+00   1.0466298761926225e+00   1.0421506056987844e+00   1.0422374073418013e+00   1.0256123435974707e+00   1.0201083729034621e+00   1.0262023208190978e+00   1.0205397002345626e+00   1.0290720623386524e+00   1.0194018108080585e+00   1.0242971772074176e+00   1.0233353017453788e+00   1.0200167042233672e+00   1.0162874851598409e+00   7.8996170669111787e-01   9.5269851054253418e-01   1.0448698602980204e+00   1.0454010660591868e+00   1.0472896191684633e+00   1.0429786194961470e+00   1.0512436031460455e+00   1.0485981258992239e+00   1.0544064337195334e+00   1.0485807250169139e+00   9.9053028147997413e-01   1.0209863610568171e+00   1.0434682759647862e+00   1.0456860161869073e+00   1.0440189019841162e+00   1.0393402990729947e+00   1.0444210343331901e+00   1.0469072307376066e+00   1.0522376273781748e+00   1.0484981784950662e+00   1.0436667752970057e+00   1.0452037661840543e+00   1.0353583446610641e+00   1.0229654594737365e+00   1.0083392527601069e+00   1.0458706186564704e+00   1.0492193380874102e+00   1.0413856251953999e+00   1.0424082346098991e+00   1.0402617580748055e+00   1.0376798514862815e+00   1.0332343142169087e+00   1.0350168255425078e+00   1.0331609182139712e+00   1.0396675829981530e+00   1.0380806957831248e+00   9.9651388094265669e-01   1.0063344018268618e+00   9.4183666926430043e-01   9.9650372463083647e-01   1.0401585721232711e+00   1.0446832490629994e+00   1.0388962992056285e+00   1.0304973114852929e+00   9.9771777850050047e-01   1.0060118824367477e+00   1.0244321442983351e+00   1.0096646769117330e+00   1.0479451319004851e+00   1.0503089027722170e+00   1.0349964499449444e+00   1.0378313512435455e+00   1.0260123005646125e+00   1.0361717609121874e+00   1.0393383467140356e+00   1.0451825697666355e+00   1.0341964130715826e+00   1.0516622576603154e+00   1.0523029543467299e+00   1.0492532250343363e+00   1.0546228394704535e+00   1.0350975279074459e+00   1.0379360733788936e+00   1.0319815268742114e+00   1.0300944394093028e+00   1.0490398696708354e+00   3.5687330942796197e-01   8.5515005643208353e-01   8.2495453586600775e-01   8.7426399385705988e-01   1.0484268494371876e+00   1.0475813212031608e+00   1.0540780161322367e+00   1.0413590088114077e+00   1.0424446329854737e+00   1.0319066854156900e+00   1.0339472289092224e+00   1.0411305901149339e+00   1.0383373047364224e+00   9.0081426943498588e-01   9.0840887901320433e-01   1.0417219799040411e+00   1.0357990795717931e+00   1.0360345224488725e+00   1.0256861469896394e+00   1.0416599275348200e+00   1.0397408123872574e+00   1.0187627883080328e+00   1.0074851645873557e+00   1.0359373310589917e+00   1.0358668265176991e+00   1.0451481394258855e+00   1.0416033447284636e+00   1.0409935127719747e+00   1.0423832824464674e+00   1.0474731453228441e+00   1.0513365947500124e+00   1.0515588026889371e+00   1.0552670143913869e+00   1.0462355740152023e+00   1.0496400740590368e+00   1.0464742362044039e+00   1.0511814467334046e+00   1.0517021811142468e+00   1.0417192277571741e+00   1.0401960909220163e+00   1.0431676367032934e+00   1.0400007513628520e+00   1.0376006514178582e+00   1.0424838639820335e+00   1.0355961263095046e+00   1.0080018019397050e+00   1.0233360873708388e+00   1.0295233543370881e+00   1.0469059864993802e+00   1.0483499093303916e+00   1.0120516807683271e+00   1.0170251321596704e+00   1.0346114269151152e+00   1.0368047217263754e+00   1.0504631669092908e+00   1.0508747198349226e+00   1.0460703082683658e+00   1.0431886914449864e+00   1.0430929255050225e+00   1.0448878345184640e+00   1.0397806202420541e+00   1.0405712754131562e+00   9.3445419468209467e-01   9.7108390959706226e-01   1.0319528438469259e+00   1.0351670690470403e+00   1.0414660669120894e+00   1.0451359993168363e+00   1.0447691229169007e+00   1.0383662126716078e+00   1.0500398318815545e+00   1.0436345583245907e+00   1.0303801575132265e+00   9.3072426369150463e-01   8.4384859363997899e-01   1.0204570041448151e+00   1.0251468205685714e+00   1.0210952377775744e+00   1.0234853815006641e+00   1.0440189210418589e+00   1.0437022383633787e+00   8.0400089530181051e-01   8.0591340188861049e-01   1.0290336445204364e+00   1.0331804884012252e+00   1.0346208218990089e+00   1.0260166114070131e+00   1.0442409360678040e+00   1.0464443631214626e+00   1.0410502966366741e+00   1.0400433393858786e+00   1.0284650953983985e+00   1.0300289053108169e+00   1.0135352829896154e+00   1.0098773337179467e+00   1.01177316377388