<?xml version="1.0"?>
<VTKFile type="UnstructuredGrid"  version="0.1"  >
<UnstructuredGrid>
<Piece  NumberOfPoints="3274" NumberOfCells="6242">
<Points>
<DataArray  type="Float64"  NumberOfComponents="3"  format="ascii">0 10 0  0 0 0  10 0 0  10 10 0  5.992114701314478 5.125333233564304 0  6 5 0  5.992114701314478 4.874666766435696 0  5.968583161128631 4.751310112835145 0  5.929776485888252 4.631875447315323 0  5.876306680043863 4.518246325898284 0  5.809016994374947 4.412214747707527 0  5.728968627421411 4.315452894071311 0  5.637423989748689 4.22948675722421 0  5.535826794978997 4.155672074497985 0  5.425779291565072 4.09517294753398 0  5.309016994374947 4.048943483704846 0  5.187381314585724 4.017712749271311 0  5.062790519529313 4.001973271571728 0  4.937209480470687 4.001973271571728 0  4.812618685414275 4.017712749271311 0  4.690983005625053 4.048943483704846 0  4.574220708434928 4.09517294753398 0  4.464173205021003 4.155672074497985 0  4.362576010251311 4.229486757224211 0  4.271031372578588 4.315452894071312 0  4.190983005625053 4.412214747707528 0  4.123693319956137 4.518246325898285 0  4.070223514111748 4.631875447315322 0  4.031416838871369 4.751310112835146 0  4.007885298685522 4.874666766435696 0  4 5 0  4.007885298685522 5.125333233564304 0  4.031416838871369 5.248689887164855 0  4.070223514111749 5.368124552684678 0  4.123693319956137 5.481753674101715 0  4.190983005625053 5.587785252292473 0  4.271031372578589 5.684547105928689 0  4.36257601025131 5.770513242775789 0  4.464173205021003 5.844327925502015 0  4.574220708434927 5.904827052466019 0  4.690983005625053 5.951056516295154 0  4.812618685414275 5.982287250728689 0  4.937209480470687 5.998026728428272 0  5.062790519529313 5.998026728428272 0  5.187381314585725 5.982287250728689 0  5.309016994374947 5.951056516295154 0  5.425779291565073 5.90482705246602 0  5.535826794978997 5.844327925502015 0  5.63742398974869 5.770513242775789 0  5.728968627421412 5.684547105928688 0  5.809016994374947 5.587785252292473 0  5.876306680043863 5.481753674101715 0  5.929776485888252 5.368124552684678 0  5.968583161128631 5.248689887164855 0  10 5 0  5 0 0  0 5 0  5 10 0  0 2.5 0  0 7.5 0  10 7.5 0  7.5 10 0  10 2.5 0  7.5 0 0  2.5 0 0  2.5 10 0  7.485014227815469 7.485014227815468 0  2.624291547813317 2.470127454275751 0  2.624291547813306 7.529872545724244 0  7.485014227815469 2.514985772184531 0  4.620446423227826 8.004475929833612 0  4.620446423227826 1.995524070166387 0  2 5.188744001760954 0  8.009762413667167 5.50092484241762 0  6.25 8.749910705909175 0  6.231734626560344 1.268136995742228 0  8.652134543612291 3.848955432239774 0  8.735102992990898 1.264897007009102 0  1.298640613344511 8.70135938665549 0  1.298640613344514 1.298640613344514 0  8.735102992990898 8.735102992990898 0  1.32486817239184 3.602721496273811 0  0 6.25 0  5.927313115200329 7.301462900913446 0  6.018514784896791 2.73575273859121 0  1.46012754946627 6.586509713609103 0  3.375412750820398 8.805858133461292 0  3.75 0 0  7.210287463492858 3.959917668469034 0  8.746887821637173 6.757315261531288 0  2.75427163560592 3.930963631533782 0  3.125 1.20674210234345 0  2.943794974478871 6.190871022350711 0  6.825732469488118 6.378522665594295 0  8.743010011192087 2.591891574357684 0  7.483399585327811 1.251663284750698 0  0 3.75 0  1.25 0 0  0 1.25 0  0 8.75 0  1.25 10 0  10 1.25 0  6.25 0 0  8.75 0 0  6.25 10 0  10 3.75 0  10 6.25 0  10 8.75 0  8.75 10 0  3.75 10 0  3.810152138366983 3.022631036742028 0  7.492462995777718 8.727654225028648 0  3.920711873054401 6.96954794442357 0  1.160966450995929 2.452397487456289 0  4.375 0.9149815118452254 0  0.9534467980924162 5.587666637777538 0  9.059920331215721 5.729227516799859 0  1.092141083367926 7.622001080218721 0  2.347167458039906 8.552074467977752 0  7.035390514030324 5.128055916921455 0  5.003122498127488 2.963143307567926 0  4.942871952047775 7.021490037253216 0  4.428923243843399 9.074762154804601 0  0.9313086115777203 4.556301549197934 0  2.983895043982564 4.923718037128732 0  8.475490130958471 7.744627089847896 0  7.789009478636881 6.554228521251022 0  3.63520742506862 2.051437667164196 0  8.707401663528154 4.821324829872955 0  3.533550877963555 7.853698443855794 0  5.339287008234124 0.9027094569265255 0  5.297648561497755 8.677937622222498 0  2.1952343317288 0.9230673988174298 0  8.075984025010529 3.175487740708776 0  1.898758825823051 1.95534337194406 0  1.875 9.373178164734556 0  9.374824554239121 1.875 0  8.125 9.374824554239121 0  9.374824554239121 8.125 0  8.125 0.6251754457608796 0  8.102651320356042 1.882534099549675 0  5.555834842392044 1.91923664117996 0  6.865782670338777 1.884114931596786 0  6.64627760167333 7.901459339370077 0  6.882493169332692 9.367462718860255 0  9.360276396535061 0.639723603464939 0  0.6718845514179709 9.328115448582029 0  0.6718845514179738 0.671884551417974 0  9.360276396535061 9.360276396535061 0  6.849445628625583 0.6428340415263989 0  0.6252707365992336 6.872955555725 0  7.779789619335941 4.642347291880305 0  1.920367323438066 4.285936742177812 0  1.886879328762172 2.935805792644626 0  0 3.125 0  10 3.125 0  6.829064276033837 3.138852187255846 0  9.362544582254804 4.296332770792826 0  0.6294854495481924 1.803884990381194 0  5.723867456876992 9.374955352954586 0  6.234430185778811 3.68546536771353 0  0 8.125 0  3.586768667647489 3.83082576879668 0  1.876243471497236 7.875738773857043 0  2.107188557886428 6.033287377979783 0  2.401726318101464 6.769145918164444 0  6.677644360454483 7.133114086704463 0  3.153172063084042 6.930340955888605 0  9.202503567680719 3.256925918678836 0  5.40362522057331 7.894159836946178 0  5.847572751594044 6.541729111728994 0  9.151562748582334 7.399512082113663 0  2.72169183938259 9.244571098971553 0  4.027166877117502 8.450590314684476 0  7.406261223937218 5.924226876880179 0  6.656991742980741 4.461610746210265 0  3.019302513935811 3.171181436845406 0  8.42963329327514 6.099017498410762 0  7.929628714672585 3.883876234709687 0  2.505719997716461 1.570953349337789 0  10 6.875 0  5.582664826527307 3.385861901793781 0  0.6385265297852114 8.4375 0  3.716483847114921 6.223618070713637 0  2.631969561453143 5.546792065808645 0  3.362397364365777 5.548428728085521 0  0.7588267982127279 3.096534204957019 0  7.851992675295601 8.104156769365778 0  2.913279681839236 8.156884513848921 0  8.096891386573146 7.169818345867771 0  2.798761766443515 0.6104864041175854 0  3.671506264062989 0.7245683763958539 0  3.867863724792883 1.393871234092059 0  1.649817747458113 7.237052684909195 0  4.426192956891247 3.3850570800063 0  9.319293531819399 6.369901553367093 0  2.123193757988123 3.605425148679854 0  6.579499709872288 5.69442892829178 0  0.6870138590775676 3.897472165971907 0  5.052283494860724 9.328870130343036 0  0.6723431162417803 6.200433195389051 0  1.875 0 0  1.549291932862476 0.6390212382365446 0  6.21139096239505 1.923390547229892 0  4.152576989347208 2.459595351551795 0  5.050476204704109 1.495562853986229 0  9.348288366357405 4.949818072523935 0  0 4.375 0  5.971911740025946 0.6301946467015171 0  3.259489089776259 2.574035544092853 0  4.453321835805339 6.571835098730658 0  3.125 10 0  8.739169531583208 1.951644066391377 0  9.378669592542254 2.643950573017813 0  8.116435035031106 2.513805545071047 0  6.638595351572846 2.50537245267725 0  7.261010404021443 6.896819043068465 0  8.109268203102822 1.25668035103298 0  7.499070367747349 0.6259293959838862 0  3.803354572726946 9.327440761045327 0  5.625 10 0  0 1.875 0  10 4.375 0  0 6.875 0  6.875 0 0  0.625 0 0  0 0.625 0  0.625 10 0  6.875 10 0  8.125 0 0  10 8.125 0  10 0.625 0  10 1.875 0  3.125 0 0  1.875 10 0  5.625 0 0  4.375 10 0  10 5.625 0  0 5.625 0  4.375 0 0  9.375 0 0  8.125 10 0  0 9.375 0  10 9.375 0  9.375 10 0  4.124636214849647 7.585686737904448 0  3.226311222126587 4.344714271864214 0  7.453081909415364 3.138186203303845 0  6.023602759614032 8.127401266051624 0  8.113652109834199 8.753213411463918 0  6.871364138431048 8.74618709364416 0  7.503701808903232 9.378700745430104 0  1.522824227845408 4.775917933203273 0  6.852433445057831 1.263542672082663 0  2.395702172884109 4.69892519046945 0  7.484233723571037 1.89641294923239 0  1.476280462378535 5.950382956163246 0  9.382187377079948 8.742810580703335 0  8.742465815831727 9.352913573694233 0  8.742810580703335 0.6178126229200519 0  9.352913573694233 1.257534184168274 0  3.006155193467456 1.962367273432881 0  7.223215083845321 8.156989587839728 0  1.271719100451898 9.396653327112993 0  0.5179759976288465 7.8125 0  5.438213071062911 2.525234329686767 0  8.316148260887561 4.355807401641232 0  1.206821491497361 1.872776676101541 0  0.5769084626609742 2.389014696033135 0  6.303502337897015 9.421005435886736 0  2.458997820199305 3.025074747392433 0  1.3252158116452 3.032752655221394 0  7.222105560298839 4.528900906124603 0  0.5716884255903881 1.234925952412458 0  8.643913084898211 3.151617408172255 0  0.609052490321687 5.079138898173932 0  1.456399801971225 5.334887398767092 0  6.290704232717009 6.184739386752334 0  4.852836612747218 0.5704278826615091 0  4.421790344198421 1.47250102483893 0  1.126283477763049 8.174901644214513 0  1.129018063831073 7.078996263309201 0  4.725919873842514 8.575629199064023 0  3.250125771060453 9.44782441806348 0  8.544164743213932 5.572190078245881 0  2.394930872635468 8.015687177523562 0  1.862254413972926 1.386146389339021 0  8.365561237443726 8.274388495585752 0  5.193549842664885 6.532104764905914 0  5.514324218182338 6.960757910718654 0  1.795478788511246 8.434091254567177 0  2.849161950879783 8.728105463299293 0  9.184221647751215 3.791765304398627 0  7.489470574113465 5.401001875975131 0  6.528693214247355 4.975104456402571 0  9.252272670425468 6.887450909966467 0  5 3.484451236194627 0  4.913578495087319 2.439075971750351 0  5.574304159837545 1.38397330585346 0  7.917911770841194 6.01182996302364 0  4.647881031951949 7.469102910678543 0  1.358446282839421 4.174584348637395 0  3.490935334304721 4.795755635313538 0  6.410708101166638 
[...]
<PointData  Vectors="u"> 
<DataArray  type="Float64"  Name="u"  NumberOfComponents="3" format="ascii">0.0000000000000000e+00 0.0000000000000000e+00 0.0000000000000000e+00  0.0000000000000000e+00 0.0000000000000000e+00 0.0000000000000000e+00  0.0000000000000000e+00 0.0000000000000000e+00 0.0000000000000000e+00  0.0000000000000000e+00 0.0000000000000000e+00 0.0000000000000000e+00  -4.6267426759465247e-01 -7.4915794191394852e-02 0.0000000000000000e+00  -4.6922265560396154e-01 1.6113028561544816e-02 0.0000000000000000e+00  -4.6749804050864474e-01 5.9650525567750190e-02 0.0000000000000000e+00  -4.5624491010810314e-01 1.1686525651755765e-01 0.0000000000000000e+00  -4.3437497097896854e-01 1.7878492606432528e-01 0.0000000000000000e+00  -4.1950402115490076e-01 2.1390286101392694e-01 0.0000000000000000e+00  -3.7050360644491209e-01 2.9121759653476126e-01 0.0000000000000000e+00  -3.4755788660931936e-01 3.1773563520358061e-01 0.0000000000000000e+00  -2.9170379109785266e-01 3.7031571512768402e-01 0.0000000000000000e+00  -2.5943808566673376e-01 3.9465086620054818e-01 0.0000000000000000e+00  -2.0140788935573614e-01 4.2316954160988141e-01 0.0000000000000000e+00  -1.5220731579235136e-01 4.4602335822000627e-01 0.0000000000000000e+00  -1.1421198888576935e-01 4.5538085738614736e-01 0.0000000000000000e+00  -2.3140398686244970e-02 4.7222100932185840e-01 0.0000000000000000e+00  4.7510852532539324e-02 4.6600326201296299e-01 0.0000000000000000e+00  9.3156408140797078e-02 4.6119495060841453e-01 0.0000000000000000e+00  1.5138768576998951e-01 4.4555481501615896e-01 0.0000000000000000e+00  2.0332567898862269e-01 4.2341592920847887e-01 0.0000000000000000e+00  2.5221937638517150e-01 3.9947317711273117e-01 0.0000000000000000e+00  2.8080960618631701e-01 3.7696438578279534e-01 0.0000000000000000e+00  3.5098823798181478e-01 3.1710130258630048e-01 0.0000000000000000e+00  3.8805440979848915e-01 2.6254478877814491e-01 0.0000000000000000e+00  4.1275508887322099e-01 2.2882091759058390e-01 0.0000000000000000e+00  4.3662572127193211e-01 1.7426712167012204e-01 0.0000000000000000e+00  4.5236598457534638e-01 1.3211282810141647e-01 0.0000000000000000e+00  4.6773077023986714e-01 5.3757408316250033e-02 0.0000000000000000e+00  4.6904176288280580e-01 2.3934075557456171e-02 0.0000000000000000e+00  4.6704244768745673e-01 -5.8314318669216492e-02 0.0000000000000000e+00  4.4650053254970662e-01 -1.4631763631339459e-01 0.0000000000000000e+00  4.3505679090465144e-01 -1.8121903476843887e-01 0.0000000000000000e+00  4.1974175262428026e-01 -2.1338039198490022e-01 0.0000000000000000e+00  3.7144297930804226e-01 -2.8987825913452792e-01 0.0000000000000000e+00  3.5306802670468990e-01 -3.1183341250058205e-01 0.0000000000000000e+00  2.8848841382488005e-01 -3.7387847302824762e-01 0.0000000000000000e+00  2.5577332212045828e-01 -3.9361243793064582e-01 0.0000000000000000e+00  2.1779963539615843e-01 -4.1811129210511205e-01 0.0000000000000000e+00  1.3222005210058660e-01 -4.5201007146637467e-01 0.0000000000000000e+00  8.5881780683702336e-02 -4.6155319172009962e-01 0.0000000000000000e+00  3.3758462863144288e-02 -4.6963150016135580e-01 0.0000000000000000e+00  -3.0264179043161681e-02 -4.6834634931279745e-01 0.0000000000000000e+00  -7.4383214233644010e-02 -4.6485904279353951e-01 0.0000000000000000e+00  -1.6327441555099564e-01 -4.4235737761531979e-01 0.0000000000000000e+00  -2.0384044673887197e-01 -4.2218937663659745e-01 0.0000000000000000e+00  -2.4012563558318203e-01 -4.0625117781085418e-01 0.0000000000000000e+00  -3.1270836334747842e-01 -3.5243021731692714e-01 0.0000000000000000e+00  -3.4260250808848952e-01 -3.2302002155345105e-01 0.0000000000000000e+00  -3.8312358399326929e-01 -2.7630386833128012e-01 0.0000000000000000e+00  -4.0333853537041681e-01 -2.4133609662752381e-01 0.0000000000000000e+00  -4.4234188643468558e-01 -1.5987221807541310e-01 0.0000000000000000e+00  -4.5606555116386782e-01 -1.2158691005287432e-01 0.0000000000000000e+00  0.0000000000000000e+00 0.0000000000000000e+00 0.0000000000000000e+00  0.0000000000000000e+00 0.0000000000000000e+00 0.0000000000000000e+00  0.0000000000000000e+00 0.0000000000000000e+00 0.0000000000000000e+00  0.0000000000000000e+00 0.0000000000000000e+00 0.0000000000000000e+00  0.0000000000000000e+00 0.0000000000000000e+00 0.0000000000000000e+00  0.0000000000000000e+00 0.0000000000000000e+00 0.0000000000000000e+00  0.0000000000000000e+00 0.0000000000000000e+00 0.0000000000000000e+00  0.0000000000000000e+00 0.0000000000000000e+00 0.0000000000000000e+00  0.0000000000000000e+00 0.0000000000000000e+00 0.0000000000000000e+00  0.0000000000000000e+00 0.0000000000000000e+00 0.0000000000000000e+00  0.0000000000000000e+00 0.0000000000000000e+00 0.0000000000000000e+00  0.0000000000000000e+00 0.0000000000000000e+00 0.0000000000000000e+00  -9.3024915008770095e-02 -9.2803437822536985e-02 0.0000000000000000e+00  9.3049109021597007e-02 9.7094837251066032e-02 0.0000000000000000e+00  9.2968602718517021e-02 -9.7089606506636172e-02 0.0000000000000000e+00  -9.3453928741232956e-02 9.3128289494764468e-02 0.0000000000000000e+00  2.2703937667932866e-02 -1.4879310920831598e-01 0.0000000000000000e+00  2.3018279990836808e-02 1.4854030169667515e-01 0.0000000000000000e+00  1.5087826073449068e-01 -1.1608669446957230e-02 0.0000000000000000e+00  -1.4559828621389087e-01 -2.9503133954618437e-02 0.0000000000000000e+00  -3.5147734059217950e-02 -7.4362096221336133e-02 0.0000000000000000e+00  -3.5302027672540662e-02 7.5821310504617656e-02 0.0000000000000000e+00  -8.2663528394980840e-02 3.6010622668725414e-02 0.0000000000000000e+00  -3.0452596166670641e-02 3.0433790052126427e-02 0.0000000000000000e+00  3.1653380831840876e-02 -3.1727469867786753e-02 0.0000000000000000e+00  3.1717156007511599e-02 3.1702925930529979e-02 0.0000000000000000e+00  -3.0406645616231683e-02 -3.0393778490442870e-02 0.0000000000000000e+00  7.6794033393177377e-02 4.0246930907073895e-02 0.0000000000000000e+00  0.0000000000000000e+00 0.0000000000000000e+00 0.0000000000000000e+00  -8.6120010212452330e-02 -1.9567584031956822e-01 0.0000000000000000e+00  -9.5090302496284279e-02 1.9324357294867248e-01 0.0000000000000000e+00  8.0799951546305052e-02 -4.7597940191334669e-02 0.0000000000000000e+00  3.9043212491202239e-02 -6.4709171447301803e-02 0.0000000000000000e+00  0.0000000000000000e+00 0.0000000000000000e+00 0.0000000000000000e+00  -1.9577797162096369e-01 9.9474225653635007e-02 0.0000000000000000e+00  -6.5546782070491721e-02 -4.2339821569371543e-02 0.0000000000000000e+00  1.9212530103791992e-01 9.8735697259647121e-02 0.0000000000000000e+00  4.1924425383500240e-02 6.1139501140839457e-02 0.0000000000000000e+00  1.9586267051749875e-01 -1.2037811963101352e-01 0.0000000000000000e+00  -1.9115297520184157e-01 -1.4775382066288331e-01 0.0000000000000000e+00  -5.3711401180237005e-02 4.4785538642486918e-02 0.0000000000000000e+00  -4.4551283747497568e-02 5.2112987263737663e-02 0.0000000000000000e+00  0.0000000000000000e+00 0.0000000000000000e+00 0.0000000000000000e+00  0.0000000000000000e+00 0.0000000000000000e+00 0.0000000000000000e+00  0.0000000000000000e+00 0.0000000000000000e+00 0.0000000000000000e+00  0.0000000000000000e+00 0.0000000000000000e+00 0.0000000000000000e+00  0.0000000000000000e+00 0.0000000000000000e+00 0.0000000000000000e+00  0.0000000000000000e+00 0.0000000000000000e+00 0.0000000000000000e+00  0.0000000000000000e+00 0.0000000000000000e+00 0.0000000000000000e+00  0.0000000000000000e+00 0.0000000000000000e+00 0.0000000000000000e+00  0.0000000000000000e+00 0.0000000000000000e+00 0.0000000000000000e+00  0.0000000000000000e+00 0.0000000000000000e+00 0.0000000000000000e+00  0.0000000000000000e+00 0.0000000000000000e+00 0.0000000000000000e+00  0.0000000000000000e+00 0.0000000000000000e+00 0.0000000000000000e+00  0.0000000000000000e+00 0.0000000000000000e+00 0.0000000000000000e+00  0.0000000000000000e+00 0.0000000000000000e+00 0.0000000000000000e+00  1.2774104727539801e-01 2.0095918581924174e-01 0.0000000000000000e+00  -4.5025726561477714e-02 -5.2513169540205400e-02 0.0000000000000000e+00  1.2235925144621250e-01 -2.1176275828881236e-01 0.0000000000000000e+00  4.7447640483456718e-02 4.1325259581939409e-02 0.0000000000000000e+00  1.4103547302248092e-02 5.8579266115550886e-02 0.0000000000000000e+00  6.1510327317453074e-02 -1.4154475021987934e-02 0.0000000000000000e+00  -5.9509797177749728e-02 -1.6849755642913588e-02 0.0000000000000000e+00  4.3529688826413712e-02 -3.8761645225105626e-02 0.0000000000000000e+00  4.9937734455348763e-02 -5.6003189256569059e-02 0.0000000000000000e+00  -2.6463570157178901e-01 -1.8246159235032550e-02 0.0000000000000000e+00  -4.2534068545947284e-04 2.6371330655046682e-01 0.0000000000000000e+00  8.7245081438107868e-03 -2.6848995974404083e-01 0.0000000000000000e+00  1.3289121159177736e-02 -5.9574602146543816e-02 0.0000000000000000e+00  6.0790280448035951e-02 1.0419528901145824e-02 0.0000000000000000e+00  2.6914588455517147e-01 1.1610978027469805e-02 0.0000000000000000e+00  -5.6501847800200386e-02 -5.1434617358008014e-02 0.0000000000000000e+00  -1.2613017305318219e-01 -7.9446661809033703e-02 0.0000000000000000e+00  6.7932865705405368e-02 1.2483072957635025e-01 0.0000000000000000e+00  -8.9265737767782266e-02 6.2691773335801461e-03 0.0000000000000000e+00  7.4446056872511629e-02 -1.2624111272840996e-01 0.0000000000000000e+00  -7.7461674897335471e-03 5.8766252248864573e-02 0.0000000000000000e+00  -1.0366520036012973e-02 -9.0872612886088944e-02 0.0000000000000000e+00  3.2666428054515348e-02 3.4882336996400802e-02 0.0000000000000000e+00  -9.9574601676070962e-02 6.9133411104736656e-02 0.0000000000000000e+00  5.8976023847217209e-02 5.8558054734346741e-02 0.0000000000000000e+00  2.1940569817176660e-02 -2.1624323728030859e-02 0.0000000000000000e+00  -2.1542625876639718e-02 2.1881099396186945e-02 0.0000000000000000e+00  -2.1720495440559862e-02 -2.1429966448247684e-02 0.0000000000000000e+00  -2.1540581083730467e-02 -2.1853656221298198e-02 0.0000000000000000e+00  -2.1867665332696670e-02 2.1550805600694611e-02 0.0000000000000000e+00  -5.6914010435728989e-02 5.6950932703345544e-02 0.0000000000000000e+00  -3.0483163591549310e-02 1.3799254647807552e-01 0.0000000000000000e+00  -6.7883618794944756e-02 9.6048299924343675e-02 0.0000000000000000e+00  -7.5193070772511722e-02 -1.1548298891529417e-01 0.0000000000000000e+00  -2.2658068990602766e-02 -3.1352459477792631e-02 0.0000000000000000e+00  -1.1090831780755787e-02 1.1077758508533975e-02 0.0000000000000000e+00  1.1907621750655302e-02 -1.1915680311815955e-02 0.0000000000000000e+00  1.1949898057264412e-02 1.1938645380467313e-02 0.0000000000000000e+00  -1.1030348037092165e-02 -1.1072513272408904e-02 0.0000000000000000e+00  -2.2814937753311244e-02 3.2197549362094083e-02 0.0000000000000000e+00  3.1139027431620534e-02 -2.2318199853398800e-02 0.0000000000000000e+00  -1.7087464902591934e-01 2.5739011558803399e-02 0.0000000000000000e+00  1.3558700726094888e-01 3.8466289453627053e-02 0.0000000000000000e+00  8.9481374954814619e-02 6.8662105923604250e-02 0.0000000000000000e+00  0.0000000000000000e+00 0.0000000000000000e+00 0.0000000000000000e+00  0.0000000000000000e+00 0.0000000000000000e+00 0.0000000000000000e+00  -1.4585156124695492e-01 1.4739175292513798e-01 0.0000000000000000e+00  -3.9317324536864762e-02 1.1116260119496521e-02 0.0000000000000000e+00  2.1146899029188565e-02 2.1586776203254030e-02 0.0000000000000000e+00  -1.1249901725696291e-02 -3.8314539966106391e-02 0.0000000000000000e+00  -2.1090988356099769e-01 2.2394301364210203e-01 0.0000000000000000e+00  0.0000000000000000e+00 0.0000000000000000e+00 0.0000000000000000e+00  2.3267834706536999e-01 1.9410405542190939e-01 0.0000000000000000e+00  6.3377813839299330e-02 -6.0940523136103042e-02 0.0000000000000000e+00  1.4100571143164578e-01 -5.9297126340374304e-02 0.0000000000000000e+00  1.2576753139638244e-01 -9.3028267603902204e-02 0.0000000000000000e+00  -1.2373295192182256e-01 -1.5150303943705026e-01 0.0000000000000000e+00  1.3911064221336703e-01 -1.4472071446756343e-01 0.0000000000000000e+00  -4.1321503919528539e-02 2.7292214269127403e-02 0.0000000000000000e+00  -2.6315133947471907e-02 -1.5857241666331731e-01 0.0000000000000000e+00  -1.5533261662964556e-01 -2.7300611113197659e-01 0.0000000000000000e+00  -3.6612175073434436e-02 -3.1173729950147031e-02 0.0000000000000000e+00  2.8054497444912143e-02 -3.3866178993237468e-02 0.0000000000000000e+00  3.7281448120667998e-02 -1.0027549290541453e-01 0.0000000000000000e+00  -1.8697096193141283e-01 -7.8943398646221130e-02 0.0000000000000000e+00  -2.9752427461361886e-01 1.0214826569636298e-01 0.0000000000000000e+00  1.4446819073913636e-01 1.3520534459952993e-01 0.0000000000000000e+00  -9.8992629316482589e-02 -4.1338484577448917e-02 0.0000000000000000e+00  -1.3516618171083375e-01 6.0647524129725364e-02 0.0000000000000000e+00  5.5244768743073755e-02 6.4073226882525564e-02 0.0000000000000000e+00  0.0000000000000000e+00 0.0000000000000000e+00 0.0000000000000000e+00  -1.1799770090095713e-01 2.9856250776122029e-01 0.0000000000000000e+00  1.9473387599674725e-02 -2.0307344851310302e-02 0.0000000000000000e+00  2.2691492472818675e-01 -2.1711995537123641e-01 0.0000000000000000e+00  2.0892672021629055e-01 -5.3481657272625008e-02 0.0000000000000000e+00  2.9986611761725462e-01 -1.0924157533983561e-01 0.0000000000000000e+00  3.7736534879385712e-02 2.7063762084825770e-02 0.0000000000000000e+00  -6.1892496440815022e-02 -6.4281964560639906e-02 0.0000000000000000e+00  6.6701976367137580e-02 -8.6755023126895287e-02 0.0000000000000000e+00  -8.6339046721824270e-02 -6.8909534141049306e-02 0.0000000000000000e+00  2.2997844594784482e-02 2.7951565408691280e-02 0.0000000000000000e+00  2.1217126218871563e-02 4.0943530746356642e-02 0.0000000000000000e+00  3.7030883211991342e-02 8.6285496378468080e-02 0.0000000000000000e+00  7.3737708256871329e-02 -5.8900597015096624e-02 0.0000000000000000e+00  1.1351998138612666e-01 3.0081642536193864e-01 0.0000000000000000e+00  -3.8028292730130593e-02 -2.0367705063328748e-02 0.0000000000000000e+00  1.2790793119100849e-01 7.2066066527302505e-02 0.0000000000000000e+00  -2.8938186954537909e-01 -1.3289820577761047e-01 0.0000000000000000e+00  4.0373732425223345e-02 1.7595535134713049e-02 0.0000000000000000e+00  -9.6494879404187639e-04 -4.3101322821128031e-02 0.0000000000000000e+00  3.8689223931904111e-02 -1.8433606390158792e-02 0.0000000000000000e+00  0.0000000000000000e+00 0.0000000000000000e+00 0.0000000000000000e+00  2.0279380501592927e-02 1.9462367414666965e-02 0.0000000000000000e+00  -5.7786791126089448e-02 1.2090210850629349e-01 0.0000000000000000e+00  6.7609584631456138e-02 1.7920147869573294e-01 0.0000000000000000e+00  -2.2125656319541788e-03 1.0560458576123126e-01 0.0000000000000000e+00  -4.1756448037895577e-02 8.3442703543986274e-04 0.0000000000000000e+00  0.0000000000000000e+00 0.0000000000000000e+00 0.0000000000000000e+00  -1.4567865052881318e-02 3.7446746603347583e-02 0.0000000000000000e+00  1.0332059710441253e-01 1.3487774117574916e-01 0.0000000000000000e+00  1.1161124723635192e-01 -3.0695181370458147e-01 0.0000000000000000e+00  0.0000000000000000e+00 0.0000000000000000e+00 0.0000000000000000e+00  -4.2364016369220901e-02 4.0601309186560484e-02 0.0000000000000000e+00  -2.7267968772849711e-02 2.3480301925562493e-02 0.0000000000000000e+00  -7.5466334876190672e-02 6.6428910195270377e-02 0.0000000000000000e+00  -9.8736574415493564e-02 1.3818554615236284e-01 0.0000000000000000e+00  -1.3144606195656630e-01 -1.1401560906298282e-01 0.0000000000000000e+00  -3.9804071536091133e-02 4.1146106281138961e-02 0.0000000000000000e+00  -2.3700558320377558e-02 2.6307688434541183e-02 0.0000000000000000e+00  1.8374851192380949e-02 -3.8697749249356275e-02 0.0000000000000000e+00  0.0000000000000000e+00 0.0000000000000000e+00 0.0000000000000000e+00  0.0000000000000000e+00 0.0000000000000000e+00 0.0000000000000000e+00  0.0000000000000000e+00 0.0000000000000000e+00 0.0000000000000000e+00  0.0000000000000000e+00 0.0000000000000000e+00 0.0000000000000000e+00  0.0000000000000000e+00 0.0000000000000000e+00 0.0000000000000000e+00  0.0000000000000000e+00 0.0000000000000000e+00 0.0000000000000000e+00  0.0000000000000000e+00 0.0000000000000000e+00 0.0000000000000000e+00  0.0000000000000000e+00 0.0000000000000000e+00 0.0000000000000000e+00  0.0000000000000000e+00 0.0000000000000000e+00 0.0000000000000000e+00  0.0000000000000000e+00 0.0000000000000000e+00 0.0000000000000000e+00  0.0000000000000000e+00 0.0000000000000000e+00 0.0000000000000000e+00  0.0000000000000000e+00 0.0000000000000000e+00 0.0000000000000000e+00  0.0000000000000000e+00 0.0000000000000000e+00 0.0000000000000000e+00  0.0000000000000000e+00 0.0000000000000000e+00 0.0000000000000000e+00  0.0000000000000000e+00 0.0000000000000000e+00 0.0000000000000000e+00  0.0000000000000000e+00 0.0000000000000000e+00 0.0000000000000000e+00  0.0000000000000000e+00 0.0000000000000000e+00 0.0000000000000000e+00  0.0000000000000000e+00 0.0000000000000000e+00 0.0000000000000000e+00  0.0000000000000000e+00 0.0000000000000000e+00 0.0000000000000000e+00  0.0000000000000000e+00 0.0000000000000000e+00 0.0000000000000000e+00  0.0000000000000000e+00 0.0000000000000000e+00 0.0000000000000000e+00  0.0000000000000000e+00 0.0000000000000000e+00 0.0000000000000000e+00  0.0000000000000000e+00 0.0000000000000000e+00 0.0000000000000000e+00  0.0000000000000000e+00 0.0000000000000000e+00 0.0000000000000000e+00  0.0000000000000000e+00 0.0000000000000000e+00 0.0000000000000000e+00  6.6280538495034763e-02 -1.7316444183337756e-01 0.0000000000000000e+00  2.7305568019907817e-01 1.0672097974502993e-01 0.0000000000000000e+00  -1.2669246892905950e-01 1.0168968891607756e-01 0.0000000000000000e+00  -4.9304849993958351e-02 -1.2296808466111397e-01 0.0000000000000000e+00  -3.9399485850116545e-02 -4.0689082016123174e-02 0.0000000000000000e+00  -4.3337830210718353e-02 -6.3417833407343083e-02 0.0000000000000000e+00  -2.3463462185913244e-02 -2.6026100619104042e-02 0.0000000000000000e+00  1.0787657197170020e-01 9.2734199289259463e-03 0.0000000000000000e+00  -4.3558389597568532e-02 6.4452365005505829e-02 0.0000000000000000e+00  1.9092146089807338e-01 2.5154063486181388e-02 0.0000000000000000e+00  -6.7023046736943273e-02 7.5702567719192065e-02 0.0000000000000000e+00  9.5143087928404230e-02 -3.4486996841827412e-02 0.0000000000000000e+00  -1.6507825943201458e-02 -1.7358733443984444e-02 0.0000000000000000e+00  -1.8049362603740713e-02 -1.7191877072030824e-02 0.0000000000000000e+00  -1.7425299717361981e-02 1.6550641090944024e-02 0.0000000000000000e+00  -1.7320966107335769e-02 1.8118422043106971e-02 0.0000000000000000e+00  7.1889244703921357e-02 9.5268381823653395e-02 0.0000000000000000e+00  -6.6481003323663634e-02 -8.1942373682619293e-02 0.0000000000000000e+00  1.7210713728064840e-02 -1.6300120898636458e-02 0.0000000000000000e+00  1.9855791089430593e-02 -1.9495451830600339e-02 0.0000000000000000e+00  -4.0300029447723582e-02 2.0027422073256923e-01 0.0000000000000000e+00  -1.1682250023968761e-01 2.9158225630900057e-02 0.0000000000000000e+00  3.9399020372746903e-02 3.8200568260135237e-02 0.0000000000000000e+00  2.3556019238386326e-02 2.1943190785782898e-02 0.0000000000000000e+00  -1.6957982145505118e-02 -3.2437017662049823e-02 0.0000000000000000e+00  1.1695171128388065e-01 9.6689480708257419e-02 0.0000000000000000e+00  6.5480270771004337e-02 4.6628230917406775e-02 0.0000000000000000e+00  -2.2932431288784672e-01 5.3618875444595850e-02 0.0000000000000000e+00  1.5275361297359626e-02 1.6228908458179134e-02 0.0000000000000000e+00  -6.9391706054577312e-02 4.6835912251044456e-02 0.0000000000000000e+00  3.8855461906673147e-02 -1.3025890050296005e-03 0.0000000000000000e+00  1.0158130430185888e-01 -1.3029048347243808e-02 0.0000000000000000e+00  -2.3316796820990121e-01 -2.1411956609800875e-01 0.0000000000000000e+00  2.1826430822680519e-03 3.6085600578621792e-02 0.0000000000000000e+00  2.2162935531438090e-02 1.0047680734204241e-01 0.0000000000000000e+00  3.6327799927232306e-02 -3.5523688765521422e-02 0.0000000000000000e+00  5.375927852650