<?xml version="1.0"?>
<VTKFile type="UnstructuredGrid"  version="0.1"  >
<UnstructuredGrid>
<Piece  NumberOfPoints="12711" NumberOfCells="24846">
<Points>
<DataArray  type="Float64"  NumberOfComponents="3"  format="ascii">-9.436172614400885e-21 10 0  -7.137958151997815e-20 -1.445448831339313e-19 0  10 2.134870365601759e-20 0  10 10 0  5.502147687868379 5.065782075168382 0  5.506338040024204 4.988498383134035 0  5.499702032007196 4.923427664452993 0  5.493910418464675 4.891631794365035 0  5.471204135306286 4.81428308562058 0  5.436127082807589 4.744120046069688 0  5.418632750369574 4.717077993578179 0  5.366871489304433 4.651613046874328 0  5.321803798717302 4.610706736881178 0  5.274068503852147 4.574600579942924 0  5.205273719904818 4.537817723746221 0  5.15411954037044 4.518191602636699 0  5.079041558748783 4.501104289168566 0  5.046156034814891 4.49643117232393 0  4.964087236180895 4.494920681585677 0  4.911240533048928 4.502247710086709 0  4.835644766189783 4.522831223832764 0  4.804453760242578 4.533630738196356 0  4.726978776217728 4.573766277334187 0  4.669421650995678 4.618711292489984 0  4.641312558819775 4.643544576001434 0  4.584596906977743 4.711626513572847 0  4.549347796339164 4.771624360726996 0  4.534934518368173 4.800859186908128 0  4.508383472220823 4.880305842739924 0  4.495851975826194 4.959653312907329 0  4.494885881017532 4.991819031852323 0  4.49527953896496 5.037108804310845 0  4.509214909278838 5.123964900908959 0  4.533729890210836 5.193870314480405 0  4.549913147333329 5.230491356339617 0  4.593604212745103 5.301913275405191 0  4.638928966024159 5.352811527547315 0  4.663753031364547 5.377725138361153 0  4.729338272785956 5.427746998736121 0  4.788873316406752 5.459168203986342 0  4.850055679347481 5.483454745251243 0  4.933873270511131 5.502190319742718 0  4.967598540306592 5.503821267207426 0  5.009635726230819 5.506368782111067 0  5.097067224742359 5.497461662516876 0  5.140183770670187 5.486631031113526 0  5.218100223384901 5.457161699583001 0  5.28341529284045 5.418671388552852 0  5.309207796473185 5.400122692704057 0  5.370283937142822 5.345538767309378 0  5.421588507155127 5.280481872213853 0  5.439375476123438 5.252527549149661 0  5.474994678297132 5.174349753017915 0  5.48574124222056 5.141474332385076 0  5 3.344158845960909e-18 0  5 10 0  1.641207171397582e-18 5 0  10 5 0  1.178581608451999e-18 2.5 0  2.5 1.248497325997697e-18 0  1.915776894959421e-18 7.5 0  10 7.5 0  7.5 10 0  10 2.5 0  7.5 2.452859690782343e-18 0  2.5 10 0  7.386385399881246 7.386344940076604 0  2.723376690271379 2.574052060968967 0  2.723417352418348 7.426463441979878 0  7.386453466204332 2.613986159819767 0  4.644850549838585 7.847427854717234 0  4.644818041015936 2.153277231860203 0  7.854654723977468 5.469474628836488 0  2.159997840890326 5.176526464320897 0  6.212750399036095 8.670803933462539 0  6.194241707425327 1.349065842314853 0  8.564656108937889 3.887405010074349 0  8.702734573710798 1.297310998198078 0  1.332499758465789 8.667550999617092 0  1.332505779000787 1.332519597629746 0  8.702745980826911 8.702779848469477 0  1.406235618033564 3.645560830778355 0  2.731917459768375e-18 6.25 0  5.835294403730978 7.093694047861725 0  5.918692810865991 2.940906963116641 0  1.546259289823106 6.535529072033202 0  3.417138977527755 8.736859493028177 0  3.75 1.167892865501605e-18 0  7.003624802966261 4.065841881420714 0  8.677246273794648 6.712212623430479 0  2.956190658415907 4.036750259768504 0  3.16959050394547 1.271941424581965 0  3.150947835734461 6.062779083655617 0  6.624277403131687 6.221742895932271 0  8.686141081134172 2.63962861030749 0  7.436123146416177 1.307116988817949 0  3.722251835327986e-18 3.75 0  1.25 9.179542599282405e-19 0  1.240687897754427e-18 1.25 0  9.64218946808933e-19 8.75 0  1.25 10 0  10 1.25 0  6.25 2.425839047953434e-18 0  8.75 2.016842524310097e-18 0  6.25 10 0  10 3.75 0  10 6.25 0  10 8.75 0  8.75 10 0  3.75 10 0  3.945084965243022 3.236054398892636 0  7.444504832770943 8.671682793262885 0  4.051879128123934 6.744299793666026 0  1.211494366753372 2.49647417832307 0  4.390253391560737 0.9772885163059493 0  1.018763290935615 5.572811053578145 0  8.996623713865196 5.711304763018104 0  1.138606895839849 7.580644130715791 0  2.400520724593047 8.492429620785611 0  6.753271871363575 5.108157860604844 0  5.002380395819656 3.244793778646578 0  4.952189822521839 6.741315470719756 0  4.443076985913947 9.011575104677714 0  0.9955957903579715 4.567568226620205 0  3.265152959236119 4.934634414455521 0  8.415555138589102 7.689907135325559 0  7.655488866472538 6.469771492383432 0  3.707042576855322 2.18380788479566 0  8.612788044923869 4.828029122956747 0  3.613335289001736 7.719368898906732 0  5.331023267344835 0.9655673363500039 0  5.286818817270707 8.58162256261215 0  2.230059972692107 0.9603334149390624 0  7.970721430456949 3.249098270430522 0  1.961669890321107 2.017916210954734 0  1.89838510071599 9.350179379937416 0  9.351994210585163 1.898249040402129 0  8.101769257379265 9.351980596335201 0  9.351992628421645 8.101813898729363 0  8.101742305060593 0.6480866437310493 0  8.042305768308829 1.94315581601 0  5.523338540829744 2.066549564204728 0  6.793922001959244 1.986385254771326 0  6.566170149099996 7.778607986247891 0  6.858429345349269 9.334073678855564 0  9.34846674758065 0.6515315405544998 0  0.6846144369327524 9.315402852940267 0  0.684632331206149 0.6846427524489523 0  9.348509966742792 9.348513175132519 0  6.825153813926246 0.6771655943539852 0  0.6584436833218431 6.849115256575013 0  7.598694828902945 4.670064431339283 0  2.063469689499252 4.326962024601657 0  1.981971262758931 3.009120082125082 0  1.51454622081312e-18 3.125 0  10 3.125 0  6.675712218222525 3.295582186890757 0  9.320883189274946 4.308299193983836 0  0.6520420933504743 1.826959690357067 0  5.712036108469007 9.334248489505672 0  6.013095264826469 3.924273862136376 0  1.435235818784946e-18 8.125 0  3.832258972316418 4.040539161294453 0  1.943720755817917 7.810718168504447 0  2.257198659320068 5.969695826946429 0  2.535112994906814 6.67001407147455 0  6.546524028308519 6.972289352050183 0  3.300945041067262 6.776915324363902 0  9.158774204501405 3.286006917640363 0  5.375896968965783 7.726205409419261 0  5.683480591599381 6.253784396967885 0  9.11268596071854 7.366356687045736 0  2.751627121689318 9.208486247918486 0  4.066941084163612 8.344167843253297 0  7.20890206322945 5.839995471833953 0  6.341649965242203 4.570701049359187 0  3.173146670418574 3.315952427507123 0  8.324582391769329 6.054863795094041 0  7.786765420102484 3.948760398113917 0  2.564584662993897 1.639402872770455 0  10 6.875 0  5.461770070229212 3.701936159850617 0  0.659359976735186 8.41578519071173 0  3.953000133394242 5.995408202185727 0  2.854663115180188 5.488508153348775 0  3.678864402006689 5.433127316147684 0  0.7989023992649428 3.125294934227662 0  7.786158642596415 8.035787094743846 0  2.984597018914263 8.064546864457173 0  8.005306895638382 7.096463189920156 0  2.823227358418785 0.6403043905254552 0  3.694157863433869 0.7681697637682547 0  3.907226702535663 1.485512656200686 0  1.728487176144607 7.174056586520098 0  4.544426156639745 3.699437816829565 0  9.278958274192155 6.348179359042017 0  2.258750698650663 3.682212894713163 0  6.273984765896066 5.555143060166729 0  0.7297268610476743 3.916224169009464 0  5.051408307486425 9.283142698839102 0  0.7135809172472596 6.180870890498147 0  1.875 1.102246206927408e-18 0  1.570969165120031 0.6597953865493347 0  6.150210665235656 2.052291590605885 0  4.223843121890902 2.648960428198676 0  5.048423598598564 1.608336245479915 0  9.303900196332949 4.950829634637932 0  4.561788785754432e-18 4.375 0  5.956395462686944 0.670166916689578 0  3.369302821732412 2.71816864939029 0  4.577660008678823 6.246122538544719 0  3.125 10 0  8.6942759645547 1.994843253779573 0  9.349797678524121 2.668982516852767 0  8.036644667566764 2.584577802576213 0  6.534763162265843 2.652040166638891 0  7.121660487262477 6.775840725755233 0  8.066996897219971 1.300470039973209 0  7.473889295830312 0.6539657032959447 0  3.822891238192163 9.286218483618201 0  5.625 10 0  4.580954829148703e-18 1.875 0  10 4.375 0  3.667882850769805e-18 6.875 0  6.875 2.984756415891255e-18 0  0.625 1.115156472231257e-18 0  6.03625579136738e-19 0.625 0  0.625 10 0  6.875 10 0  8.125 1.939394676794777e-18 0  10 8.125 0  10 0.625 0  10 1.875 0  3.125 1.900178696897883e-18 0  1.875 10 0  5.625 2.885537332586118e-18 0  4.375 10 0  10 5.625 0  4.788895131690043e-18 5.625 0  4.375 4.577081529962399e-18 0  9.375 1.352416874540516e-18 0  8.125 10 0  8.166750291274224e-19 9.375 0  10 9.375 0  9.375 10 0  4.195662450838332 7.401670782760823 0  3.5127376045273 4.460428651520985 0  7.319214087835944 3.246567010397086 0  5.971062013119109 7.996605323555277 0  8.071730438094106 8.709937267132252 0  6.825201197494453 8.678618006329167 0  7.47873034665429 9.350988962249012 0  1.636885360518226 4.785960168340332 0  6.80608433898373 1.332210073946294 0  2.596808225696021 4.725668947351878 0  7.413118427916621 1.977058294860926 0  1.577617109063708 5.913585443055847 0  9.364609233972544 8.72428562047153 0  8.7232115889623 9.334587089188688 0  8.724252205734771 0.635431209590542 0  9.334566127221212 1.276804829956808 0  3.082540663136892 2.064053924582602 0  7.15248928946416 8.069705565497253 0  1.290126489621114 9.379234450900912 0  0.5391729599283264 7.79170912640576 0  5.395666287420775 2.738986092820231 0  8.19244382180837 4.387157754410768 0  1.248902174245727 1.913638494132568 0  0.601953350960153 2.412357440001265 0  6.285578366305061 9.386492689968795 0  2.583407556023455 3.128432623320906 0  1.394747447593918 3.082473741321765 0  6.97998523475347 4.585317300071237 0  0.5879951465489359 1.252222910303371 0  8.570449868364108 3.201565560164958 0  0.6502650277726314 5.077903513654792 0  1.564169111270029 5.321077281552112 0  6.045223004655679 5.956050218600236 0  4.855203108655306 0.6089520023655052 0  4.445622234709589 1.579464800378189 0  1.16510152961
[...]
<CellData  Scalars="dens"> 
<DataArray  type="Float64"  Name="dens"  format="ascii">1.0793891867608565e+00   9.5876774558802091e-01   1.0215176184438175e+00   1.0049577645013485e+00   1.0051151650391337e+00   9.6357227709092308e-01   2.9907051898508290e+00   1.0481186882163205e+00   9.5364074789053943e-01   9.5856701721047377e-01   9.9056416464783781e-01   9.6364199518625837e-01   1.1411932237447706e+00   1.0193734316620207e+00   1.0735072286190188e+00   1.1003208546471710e+00   1.1541892511211393e+00   9.7032153671928367e-01   1.0062401544771706e+00   1.7652030397464331e+00   1.0712179241528978e+00   1.0671380736662044e+00   9.7481568369718530e-01   1.0940876036756189e+00   1.0647090526924106e+00   9.5856074279955261e-01   1.0238940452420988e+00   1.0194926148424139e+00   1.0268500754624363e+00   1.2209360531846327e+00   1.2720777361676017e+00   1.0096895025252652e+00   9.7438390510404560e-01   1.0797351183789743e+00   3.0315052139340808e+00   1.0134517761197428e+00   1.1291812077319652e+00   9.8826034633545290e-01   1.0275507917077595e+00   1.0867860727797161e+00   9.5797602595752085e-01   1.0559536462530963e+00   9.6006626211349444e-01   1.0408925291969939e+00   1.1122307525904720e+00   1.0005125330196911e+00   9.5916589990182088e-01   1.0437231655971757e+00   9.8237028780820157e-01   1.0450307650221706e+00   1.2142936721519890e+00   1.1404299156528146e+00   9.6987076523624505e-01   1.0844337687734111e+00   9.7566710555548330e-01   9.5841841626571644e-01   9.5564386183441874e-01   9.7554337962656035e-01   1.0248854418720279e+00   1.0909945457094496e+00   1.0499989077776268e+00   1.0810702461649861e+00   1.0837126886821502e+00   9.6886988940310526e-01   9.5692775990678669e-01   1.0826310206739314e+00   1.0797653841098458e+00   1.1544796297148066e+00   9.5095187836384032e-01   1.0004107854129387e+00   1.0267659934430557e+00   9.7157303576222498e-01   9.5540552103790688e-01   9.5038282715244371e-01   9.5750195555058526e-01   9.5738872753085769e-01   9.6098043277000289e-01   9.7066756076908833e-01   9.6581947268584156e-01   1.0518927283195874e+00   9.7716337099266137e-01   9.5789908808833080e-01   9.6564389260551731e-01   9.5941766443104581e-01   9.4964796549835262e-01   9.5002472819653472e-01   1.0338580792701748e+00   9.7388946639003460e-01   9.5972807461713205e-01   9.6475236474884951e-01   1.0665331775542326e+00   1.1026321858648580e+00   9.5652407553399410e-01   9.5764673163613656e-01   9.6728816433865539e-01   1.0356912777834621e+00   1.0174170180246009e+00   1.0794289541355560e+00   9.6369755239492805e-01   9.5505343211887439e-01   9.4581311395560197e-01   9.6240767682919481e-01   9.5121368934775696e-01   9.6360484055941897e-01   9.4289462888986109e-01   9.6693984216068551e-01   9.4962217639427904e-01   9.5347307423723970e-01   9.5578183371940195e-01   9.5575968654033605e-01   9.5444235845595238e-01   1.0379472616444965e+00   9.8337383191024197e-01   9.5373493300312029e-01   9.6097328070346488e-01   9.6548381346611722e-01   9.8564157081972348e-01   9.5826395940023734e-01   9.6030440387269556e-01   9.7514173976689400e-01   9.6473907131149828e-01   9.9071880819419622e-01   9.9473943249654995e-01   9.5260902348820831e-01   9.5311774743144961e-01   9.6090538899247480e-01   9.6004329070827954e-01   9.5632046687683037e-01   1.1345200237702364e+00   1.0313512060012155e+00   1.0251240020801859e+00   9.6542562859068237e-01   1.1318289080090735e+00   1.5302432093439722e+00   9.5696296896087618e-01   9.5048743854589079e-01   9.5217102586593694e-01   1.0080920528471651e+00   9.7536557553843051e-01   9.5777176737736425e-01   9.5826491459165819e-01   9.9057410772919208e-01   9.5143625031745516e-01   9.5634510179697840e-01   9.5225321134564977e-01   9.5626490222768568e-01   9.5267299345771672e-01   9.5517834176381722e-01   9.6508999902247061e-01   9.5076308241518148e-01   9.7027658716681364e-01   9.6724866825083766e-01   9.6250533362903701e-01   9.6505353959266826e-01   9.7142538007129420e-01   9.5708843413417566e-01   9.5699325639264943e-01   9.5809705055686145e-01   9.5835207302825198e-01   9.5905405497038154e-01   9.6239961333539903e-01   9.6036396080544839e-01   9.6556130872410784e-01   9.5805259063277626e-01   9.5578542176952785e-01   9.6011923331084925e-01   9.5797446819314647e-01   9.5783819096772371e-01   9.5868807289855285e-01   9.6171074283494207e-01   9.5790523140512196e-01   9.5734374901288211e-01   9.6405053723493317e-01   9.5627794202191585e-01   9.5435090049055593e-01   9.5390964705596915e-01   9.6706502792276106e-01   9.6862914485236395e-01   9.5978621419316468e-01   9.5854176458684281e-01   9.6467410468296477e-01   9.5574760596560460e-01   9.5184891012804207e-01   9.5703446463471764e-01   9.4805013148747908e-01   1.0114841292156376e+00   1.0193250346621601e+00   9.5874616325357820e-01   9.6469314957082786e-01   9.5606381823105224e-01   9.6066539594233025e-01   9.5429198082283273e-01   9.5175023973301909e-01   9.6068793149716403e-01   9.6633941989791228e-01   9.5580676933785502e-01   9.6603180031528069e-01   9.6294559702869087e-01   9.5188450337766461e-01   2.6842528976691655e+00   1.0744742508237688e+00   9.5873982282833503e-01   9.6018344272433775e-01   1.0635438293197548e+00   9.7999227210458140e-01   9.5810231753541752e-01   9.6023010380147322e-01   9.6079186606665212e-01   9.6172310917924386e-01   9.7016428522233522e-01   9.6871837753879098e-01   9.7570866653962407e-01   1.0102440107967525e+00   9.6863927878958056e-01   9.6164808933867219e-01   9.5702149474697007e-01   9.5493382742603417e-01   1.0013214345524843e+00   9.9455932366557342e-01   1.2858397388854257e+00   1.0832392752167270e+00   9.5225853974920494e-01   9.5042723683859653e-01   9.5821958485718373e-01   9.7339096397721447e-01   9.6136361816928706e-01   9.8457985539851500e-01   1.0301460993947134e+00   1.0070529461155506e+00   9.6108982796263398e-01   9.6580782250113384e-01   9.6461129943606172e-01   9.6753256096678020e-01   9.7883204231690124e-01   9.6544071598908687e-01   9.5712996381752802e-01   9.5588733343983145e-01   9.5078550599561007e-01   1.0958279680074097e+00   1.0696462179605011e+00   9.6485929704294504e-01   9.6219229720574562e-01   3.0632196621892072e+00   1.1187322225724281e+00   1.0186966381770641e+00   1.0248550013929520e+00   1.0554709259673345e+00   1.0560776774055012e+00   9.5749309780130154e-01   9.5302529682410164e-01   9.5632942960933331e-01   9.5605379311798599e-01   9.5555007598802777e-01   9.5616254684313151e-01   9.5641469541103219e-01   9.5683145329309605e-01   9.5820700683530091e-01   9.5276481358761989e-01   9.5040234017741876e-01   9.6120154618320663e-01   9.5891137772385715e-01   9.5597449992238226e-01   9.5676759644149345e-01   1.0297713134502675e+00   9.5598051748771207e-01   9.5397077074964254e-01   9.6383067744485951e-01   9.7590330639691802e-01   1.0678453329811723e+00   1.0783883273407855e+00   9.5450083885663606e-01   9.5353666028849726e-01   9.4666946873376479e-01   9.4774401315910783e-01   9.6294075279162017e-01   9.6271969191746587e-01   9.5934309003617790e-01   9.6392654540997247e-01   9.6568919095106598e-01   9.7057124126050376e-01   9.6694363579677034e-01   9.9741455563307979e-01   9.8666921642619532e-01   9.5791217314540789e-01   9.4971999645978000e-01   9.4850813658342903e-01   9.4810946975856791e-01   9.5144231537586399e-01   9.4930616033822302e-01   9.5644146422130527e-01   9.6695662135551963e-01   1.2582273561044734e+00   1.0330870086010631e+00   9.5158075756375149e-01   9.4668616708122977e-01   9.5711617020249395e-01   9.5656176195928755e-01   9.5737016207470271e-01   9.5759040243339355e-01   9.5652726200359151e-01   9.5779269061874717e-01   9.6344268797182786e-01   9.6101071713142516e-01   9.6309390311471166e-01   9.6017407913813346e-01   9.5931590945183920e-01   9.5737984782674590e-01   9.5270331867939817e-01   9.5481225489956767e-01   9.4937316280386985e-01   9.5936796769950683e-01   9.4477273688678132e-01   9.5292557058099803e-01   9.5212758794793284e-01   9.7359032622239516e-01   9.6853209018043518e-01   9.7034694769863827e-01   9.7046721676967784e-01   9.5119133309256776e-01   9.5501205556991919e-01   9.6536558587090626e-01   9.5864492156613801e-01   9.5748897853039805e-01   9.7031768451531375e-01   9.6113290959921927e-01   9.7018021570712820e-01   9.4800045663787202e-01   9.5607644421180571e-01   9.6710447004700861e-01   9.4315383885338677e-01   9.4608427806837703e-01   9.5300899997988942e-01   9.4939964920091147e-01   9.6400066378034133e-01   9.6024088279012410e-01   9.7118486641145718e-01   9.7139669428946840e-01   9.9390087613400446e-01   9.7747741449360082e-01   1.0426519960423815e+00   9.8123332847245071e-01   9.5922902387679077e-01   9.5588715953603054e-01   9.6304306655035388e-01   9.5731469069914887e-01   9.5764107779004159e-01   9.5932719435484104e-01   9.5566693862460417e-01   9.5611655238624949e-01   9.5904409846427741e-01   9.5226494578535081e-01   9.6134715221889266e-01   9.5487949411541695e-01   9.5724582605291164e-01   9.7241729307692615e-01   9.7719759338713141e-01   9.5658398896036489e-01   9.5823763565906128e-01   9.5556954847650943e-01   9.6133442033797245e-01   9.6904312357031297e-01   9.6306578133186549e-01   9.6697610887993479e-01   9.6740852324320759e-01   9.6647339490574280e-01   9.6241941554743182e-01   9.6350821513033091e-01   9.5647116147861666e-01   9.5885095620900318e-01   9.5493695305568838e-01   9.6993426182141207e-01   9.5600555073149862e-01   9.6154449370157336e-01   1.0091978296638540e+00   1.0280295166675613e+00   9.6117424527616313e-01   9.5541365909625697e-01   9.6313760148269589e-01   9.5724203221078286e-01   9.5778216753152079e-01   9.4686747040786812e-01   9.5728965052383774e-01   9.5635157826084816e-01   9.5712211422927052e-01   9.5750076761931435e-01   1.0003941407369514e+00   9.8162225706167838e-01   9.6717406414675144e-01   9.5789653268534314e-01   9.5635159496677258e-01   9.4688796379438478e-01   9.6264430535221879e-01   9.5602709662169283e-01   9.9019944335548338e-01   1.0091444572490087e+00   9.5222432526868594e-01   9.5851419125441795e-01   9.6776608290539989e-01   9.5776370912805486e-01   9.5934692047989756e-01   9.5681508649533620e-01   9.5616100441366847e-01   9.6395122781444131e-01   9.6037236040912022e-01   9.5635121775724097e-01   9.6107130328078316e-01   9.5828696191623364e-01   9.5572889299319286e-01   9.6356388834645668e-01   9.6009613972955765e-01   9.6008146526566007e-01   9.6084507731872082e-01   1.0884335316029432e+00   1.8006765435337071e+00   9.7217329198168989e-01   1.0369660730807457e+00   9.6305479994708154e-01   9.5959718770473601e-01   9.5457184816189777e-01   9.5630918603578996e-01   9.4882725287621617e-01   9.5871711271359339e-01   9.8699473956159456e-01   9.8356988230704734e-01   1.0822535958970159e+00   1.0691112180579716e+00   9.5766975351237171e-01   9.5415530727311504e-01   1.1998493898998415e+00   1.1040964921518799e+00   1.0116226435964362e+00   9.7545085905690621e-01   9.5474118217567283e-01   9.6232891188259961e-01   9.6148823122115756e-01   9.6373025643142962e-01   9.7305218883548716e-01   9.7382092886388372e-01   9.5548722540587339e-01   9.5732951803118138e-01   1.0517030450347304e+00   1.0580325433896660e+00   9.9648828825595626e-01   1.0069534359146664e+00   9.5725898036814205e-01   9.5744030818935211e-01   9.5893812697213887e-01   9.6025100449675427e-01   9.5736921557506538e-01   9.6288883701140948e-01   9.8111916230200213e-01   9.7002102475828256e-01   9.4632887478896133e-01   9.5096590359349364e-01   9.5272963973001346e-01   9.4723129216496316e-01   9.4352929999910606e-01   9.5588866370244996e-01   9.5813944863552303e-01   9.6205756314257851e-01   1.0247435573025883e+00   1.0054572052792221e+00   9.8128314814351703e-01   1.0157037648255742e+00   9.5635977317314735e-01   9.5754406430637007e-01   9.7165858497466862e-01   9.6277022118181044e-01   9.8133265320154739e-01   9.8091626163279511e-01   9.5639145841275197e-01   9.5936942462465280e-01   9.5779501155623414e-01   9.5578550395864392e-01   9.5762373882536345e-01   9.5609623072044303e-01   9.7309328147931939e-01   1.1079872136122655e+00   9.5537213381683139e-01   9.5664688322419089e-01   9.6113292456366783e-01   9.5988943808481686e-01   9.5581794238442497e-01   9.6071645921463600e-01   9.5504769245710108e-01   9.5625309395383074e-01   9.5312899275806140e-01   9.5925782665254455e-01   9.5594347986669403e-01   9.6070497016355483e-01   9.5704984190001896e-01   9.8299914334934080e-01   9.7407562853685836e-01   9.6408426365719124e-01   9.7525945449039708e-01   9.4830387215536427e-01   9.4878642896187226e-01   9.6661556844313312e-01   9.6375403506685975e-01   9.5326779789569371e-01   9.6122403697247127e-01   9.4241694621387517e-01   9.4767438098959178e-01   9.5142048079303265e-01   9.7368718972044777e-01   9.9350387995617906e-01   1.0124314214916961e+00   1.0064051353844259e+00   9.4833894718380629e-01   9.5766195298337442e-01   9.5704141949281463e-01   9.5862763992575151e-01   9.5595261990827007e-01   9.5501056273747198e-01   9.5409508437957313e-01   9.5704273388414840e-01   9.5998172769151613e-01   9.5750284132958674e-01   9.5034237676746025e-01   9.4803670063860490e-01   9.6978854151362892e-01   9.7403379163973902e-01   1.0109777014186536e+00   9.7931285583445837e-01   9.6141735169678222e-01   9.6004871883585108e-01   9.6024665010129884e-01   9.6015628842760492e-01   9.6472711582895043e-01   9.6795041032685980e-01   9.5507054262607927e-01   9.5832327177164445e-01   9.5789276765165465e-01   9.5622085402575907e-01   9.5252918527527497e-01   9.5317329720438349e-01   9.7701010895486751e-01   9.7062630715891673e-01   9.9892755597684157e-01   1.0573506222579265e+00   1.0661621493594755e+00   1.0574625219903260e+00   9.4793694004624418e-01   9.4802048606145128e-01   9.5705659992778069e-01   9.5826372027820705e-01   9.7268285090261830e-01   9.9310796221862230e-01   9.5737197889497150e-01   9.6257270529688022e-01   9.8895086570004942e-01   9.8666311730105360e-01   9.6738976994737003e-01   9.6576022824579566e-01   9.8260097624209453e-01   9.8882257194978296e-01   9.5882670155715066e-01   9.5742033462104603e-01   9.9168818724029106e-01   9.7751355095925463e-01   1.0086776582555423e+00   9.9614517826474769e-01   9.6096032340781190e-01   9.7822324951600581e-01   9.7417428870901202e-01   9.8835342242539459e-01   9.7983552084143966e-01   9.9944722241460404e-01   9.7136930640087782e-01   9.6764393664078685e-01   9.7352280706287131e-01   9.6224125798915161e-01   9.6098814460640891e-01   9.6229106386933405e-01   9.6107170381898199e-01   9.6699301366004964e-01   9.5988199398699170e-01   9.6356681376842257e-01   9.6021456342627676e-01   9.6085812455111685e-01   9.6335705362762991e-01   9.5971804600516875e-01   9.5755138415401242e-01   9.6099292910148371e-01   9.6837217695080602e-01   9.6755180392623197e-01   9.7031798400896163e-01   9.5993983947501293e-01   9.5826128385944731e-01   9.6008855586163866e-01   9.5865119981678260e-01   9.6327969841545014e-01   9.6210447105847730e-01   9.5829348253624036e-01   9.5898405440053702e-01   9.6191136663892041e-01   9.6358008852170662e-01   9.6565286265819228e-01   9.6374555899822434e-01   9.6167281633745727e-01   9.6002594168865241e-01   9.6005533243880448e-01   9.6704946122780933e-01   9.6559204405972443e-01   9.5701720860959427e-01   9.5913716064731058e-01   9.5688391732976619e-01   9.5754868950231453e-01   9.5656579482859261e-01   9.5781356105515325e-01   9.5355995117127945e-01   9.5375133748404262e-01   9.5559894267017587e-01   9.5739900819658463e-01   9.8016596504013997e-01   9.8460187682661526e-01   9.5298108123398151e-01   9.5695753099853686e-01   9.5834798859402603e-01   9.7372111926921223e-01   9.7487965910465701e-01   9.7853561555629409e-01   9.7243080892641920e-01   9.7910215362448660e-01   9.7484848467055629e-01   9.7699803716521438e-01   9.7484573206823089e-01   9.7869110330626241e-01   1.0845053269405267e+00   1.0631441507729154e+00   9.5977504483988696e-01   9.5617831582191459e-01   9.5118352335652878e-01   9.5406761644887472e-01   9.4978905011973913e-01   9.4964932616724840e-01   9.4398448762512410e-01   9.5183368183966122e-01   1.0119318739979390e+00   9.7421175861353859e-01   9.5418149835050792e-01   9.5449078914489949e-01   9.5772318519280641e-01   9.6116399003331854e-01   9.5221923937720954e-01   9.5372985929562271e-01   9.4792460842306048e-01   9.5108826224306464e-01   9.5622955590350267e-01   9.5450434894719605e-01   9.8560908100056666e-01   9.9735364716084118e-01   9.5177367595365536e-01   9.4955103170441846e-01   9.5874366075751671e-01   9.5840119132188972e-01   9.5954093070958935e-01   9.6180354892697251e-01   9.6538479673962185e-01   9.6500368415665638e-01   9.6504011477626839e-01   9.5857693902057306e-01   9.6053168835753355e-01   1.0055924040081514e+00   1.0150878703818305e+00   1.0832067639542764e+00   1.0275358245068857e+00   9.5613783623456439e-01   9.5669876942038234e-01   9.5984841645620578e-01   9.6850024730060191e-01   9.9772107797246734e-01   9.7901823115528874e-01   9.7621711703605873e-01   9.7379332032262134e-01   9.5281881649956324e-01   9.4867239732124342e-01   9.6524625838661937e-01   9.6184020477875698e-01   9.7314213306760666e-01   9.6801688692492371e-01   9.5949315728847107e-01   9.5516848431582058e-01   9.6442489939282117e-01   9.5065408731924261e-01   9.4664537716558239e-01   9.4846661806502963e-01   9.4506138881617985e-01   9.6364191486489148e-01   9.5693281231620475e-01   9.6709865278415685e-01   9.6849580433206928e-01   9.5242059801332746e-01   1.3858295103495328e+00   1.1985086413341166e+00   1.0290029119749651e+00   1.0499364739627377e+00   9.5286107669754938e-01   9.4894080085149102e-01   9.4752608769564362e-01   9.5770961747288752e-01   9.5908127310920865e-01   9.6657237580573341e-01   9.6493258869948373e-01   9.6037366031793048e-01   9.6078475086161164e-01   1.0670572042961128e+00   1.1463272406182288e+00   9.5674811849104080e-01   9.6997630266303714e-01   9.6654612762127967e-01   9.7353835661753740e-01   9.5508187882298745e-01   9.6114137198248650e-01   9.7849051215741911e-01   9.9068066200081872e-01   9.6390389495096773e-01   9.6624163524941531e-01   9.5792610915012844e-01   9.5647795079804820e-01   9.5810240257177481e-01   9.5881687180053665e-01   9.5108161786148804e-01   9.5013815852661287e-01   9.4985258523478344e-01   9.4636071837310887e-01   9.5013465831591137e-01   9.4979386132541455e-01   9.5446710649965727e-01   9.5059333754685371e-01   9.4399461562389697e-01   9.5798467724440872e-01   9.5855222537530460e-01   9.5742367135927187e-01   9.5699690703765172e-01   9.6157957955697237e-01   9.5718441151826616e-01   9.6891037992940465e-01   9.8140664193343230e-01   9.6694091778424185e-01   9.7153539138244138e-01   9.5175844841039958e-01   9.8146743592392449e-01   1.0092923019953530e+00   9.6312003706229599e-01   9.6420202041279779e-01   9.4891993021842302e-01   9.4992924517791433e-01   9.5616606311757713e-01   9.5713237174403487e-01   9.5484418701467100e-01   9.5731788626701453e-01   9.5943834736366174e-01   9.5928000629917776e-01   1.0685751806453210e+00   1.0176091030992152e+00   9.5975414168126305e-01   9.7404254343256014e-01   9.5815026377743739e-01   9.5338187945467612e-01   9.5441668282725556e-01   9.6011793652706012e-01   9.5023252285011017e-01   9.5896083588526015e-01   9.6352459063960683e-01   1.0579704863325587e+00   1.0983249062066964e+00   9.7556336984682612e-01   9.7063856012711103e-01   9.7586686304280723e-01   9.7270593657507243e-01   9.5624346663035464e-01   9.5798550359112622e-01   1.0540131445629786e+00   1.1101798008567310e+00   9.7127433928242612e-01   9.6812190205529158e-01   9.6193234097937130e-01   9.6542229346220054e-01   9.5676011055823940e-01   9.5433885007782848e-01   9.5869306476444360e-01   9.5676275299932123e-01   9.7383401150623927e-01   9.6476112412095483e-01   9.9015342662528261e-01   1.0002165011066289e+00   9.8373047286695769e-01   9.6654016101188189e-01   3.0236101950885108e+00   1.4625328711103647e+00   9.6324379601262555e-01   9.8923811084594371e-01   1.0054920475880895e+00   1.0183666907946305e+00   1.0468203782467143e+00   9.99040572497033