<?xml version="1.0"?>
<VTKFile type="UnstructuredGrid"  version="0.1"  >
<UnstructuredGrid>
<Piece  NumberOfPoints="12711" NumberOfCells="24846">
<Points>
<DataArray  type="Float64"  NumberOfComponents="3"  format="ascii">0 10 0  0 0 0  10 0 0  10 10 0  5.992114701314478 5.125333233564304 0  6 5 0  5.992114701314478 4.874666766435696 0  5.968583161128631 4.751310112835145 0  5.929776485888252 4.631875447315323 0  5.876306680043863 4.518246325898284 0  5.809016994374947 4.412214747707527 0  5.728968627421411 4.315452894071311 0  5.637423989748689 4.22948675722421 0  5.535826794978997 4.155672074497985 0  5.425779291565072 4.09517294753398 0  5.309016994374947 4.048943483704846 0  5.187381314585724 4.017712749271311 0  5.062790519529313 4.001973271571728 0  4.937209480470687 4.001973271571728 0  4.812618685414275 4.017712749271311 0  4.690983005625053 4.048943483704846 0  4.574220708434928 4.09517294753398 0  4.464173205021003 4.155672074497985 0  4.362576010251311 4.229486757224211 0  4.271031372578588 4.315452894071312 0  4.190983005625053 4.412214747707528 0  4.123693319956137 4.518246325898285 0  4.070223514111748 4.631875447315322 0  4.031416838871369 4.751310112835146 0  4.007885298685522 4.874666766435696 0  4 5 0  4.007885298685522 5.125333233564304 0  4.031416838871369 5.248689887164855 0  4.070223514111749 5.368124552684678 0  4.123693319956137 5.481753674101715 0  4.190983005625053 5.587785252292473 0  4.271031372578589 5.684547105928689 0  4.36257601025131 5.770513242775789 0  4.464173205021003 5.844327925502015 0  4.574220708434927 5.904827052466019 0  4.690983005625053 5.951056516295154 0  4.812618685414275 5.982287250728689 0  4.937209480470687 5.998026728428272 0  5.062790519529313 5.998026728428272 0  5.187381314585725 5.982287250728689 0  5.309016994374947 5.951056516295154 0  5.425779291565073 5.90482705246602 0  5.535826794978997 5.844327925502015 0  5.63742398974869 5.770513242775789 0  5.728968627421412 5.684547105928688 0  5.809016994374947 5.587785252292473 0  5.876306680043863 5.481753674101715 0  5.929776485888252 5.368124552684678 0  5.968583161128631 5.248689887164855 0  5 0 0  5 10 0  0 5 0  10 5 0  0 2.5 0  2.5 0 0  0 7.5 0  10 7.5 0  7.5 10 0  10 2.5 0  7.5 0 0  2.5 10 0  7.485014227815469 7.485014227815468 0  2.624291547813317 2.470127454275751 0  2.624291547813306 7.529872545724244 0  7.485014227815469 2.514985772184531 0  4.620446423227826 8.004475929833612 0  4.620446423227826 1.995524070166387 0  8.009762413667167 5.50092484241762 0  2 5.188744001760954 0  6.25 8.749910705909175 0  6.231734626560344 1.268136995742228 0  8.652134543612291 3.848955432239774 0  8.735102992990898 1.264897007009102 0  1.298640613344511 8.70135938665549 0  1.298640613344514 1.298640613344514 0  8.735102992990898 8.735102992990898 0  1.32486817239184 3.602721496273811 0  0 6.25 0  5.927313115200329 7.301462900913446 0  6.018514784896791 2.73575273859121 0  1.46012754946627 6.586509713609103 0  3.375412750820398 8.805858133461292 0  3.75 0 0  7.210287463492858 3.959917668469034 0  8.746887821637173 6.757315261531288 0  2.75427163560592 3.930963631533782 0  3.125 1.20674210234345 0  2.943794974478871 6.190871022350711 0  6.825732469488118 6.378522665594295 0  8.743010011192087 2.591891574357684 0  7.483399585327811 1.251663284750698 0  0 3.75 0  1.25 0 0  0 1.25 0  0 8.75 0  1.25 10 0  10 1.25 0  6.25 0 0  8.75 0 0  6.25 10 0  10 3.75 0  10 6.25 0  10 8.75 0  8.75 10 0  3.75 10 0  3.810152138366983 3.022631036742028 0  7.492462995777718 8.727654225028648 0  3.920711873054401 6.96954794442357 0  1.160966450995929 2.452397487456289 0  4.375 0.9149815118452254 0  0.9534467980924162 5.587666637777538 0  9.059920331215721 5.729227516799859 0  1.092141083367926 7.622001080218721 0  2.347167458039906 8.552074467977752 0  7.035390514030324 5.128055916921455 0  5.003122498127488 2.963143307567926 0  4.942871952047775 7.021490037253216 0  4.428923243843399 9.074762154804601 0  0.9313086115777203 4.556301549197934 0  2.983895043982564 4.923718037128732 0  8.475490130958471 7.744627089847896 0  7.789009478636881 6.554228521251022 0  3.63520742506862 2.051437667164196 0  8.707401663528154 4.821324829872955 0  3.533550877963555 7.853698443855794 0  5.339287008234124 0.9027094569265255 0  5.297648561497755 8.677937622222498 0  2.1952343317288 0.9230673988174298 0  8.075984025010529 3.175487740708776 0  1.898758825823051 1.95534337194406 0  1.875 9.373178164734556 0  9.374824554239121 1.875 0  8.125 9.374824554239121 0  9.374824554239121 8.125 0  8.125 0.6251754457608796 0  8.102651320356042 1.882534099549675 0  5.555834842392044 1.91923664117996 0  6.865782670338777 1.884114931596786 0  6.64627760167333 7.901459339370077 0  6.882493169332692 9.367462718860255 0  9.360276396535061 0.639723603464939 0  0.6718845514179709 9.328115448582029 0  0.6718845514179738 0.671884551417974 0  9.360276396535061 9.360276396535061 0  6.849445628625583 0.6428340415263989 0  0.6252707365992336 6.872955555725 0  7.779789619335941 4.642347291880305 0  1.920367323438066 4.285936742177812 0  1.886879328762172 2.935805792644626 0  0 3.125 0  10 3.125 0  6.829064276033837 3.138852187255846 0  9.362544582254804 4.296332770792826 0  0.6294854495481924 1.803884990381194 0  5.723867456876992 9.374955352954586 0  6.234430185778811 3.68546536771353 0  0 8.125 0  3.586768667647489 3.83082576879668 0  1.876243471497236 7.875738773857043 0  2.107188557886428 6.033287377979783 0  2.401726318101464 6.769145918164444 0  6.677644360454483 7.133114086704463 0  3.153172063084042 6.930340955888605 0  9.202503567680719 3.256925918678836 0  5.40362522057331 7.894159836946178 0  5.847572751594044 6.541729111728994 0  9.151562748582334 7.399512082113663 0  2.72169183938259 9.244571098971553 0  4.027166877117502 8.450590314684476 0  7.406261223937218 5.924226876880179 0  6.656991742980741 4.461610746210265 0  3.019302513935811 3.171181436845406 0  8.42963329327514 6.099017498410762 0  7.929628714672585 3.883876234709687 0  2.505719997716461 1.570953349337789 0  10 6.875 0  5.582664826527307 3.385861901793781 0  0.6385265297852114 8.4375 0  3.716483847114921 6.223618070713637 0  2.631969561453143 5.546792065808645 0  3.362397364365777 5.548428728085521 0  0.7588267982127279 3.096534204957019 0  7.851992675295601 8.104156769365778 0  2.913279681839236 8.156884513848921 0  8.096891386573146 7.169818345867771 0  2.798761766443515 0.6104864041175854 0  3.671506264062989 0.7245683763958539 0  3.867863724792883 1.393871234092059 0  1.649817747458113 7.237052684909195 0  4.426192956891247 3.3850570800063 0  9.319293531819399 6.369901553367093 0  2.123193757988123 3.605425148679854 0  6.579499709872288 5.69442892829178 0  0.6870138590775676 3.897472165971907 0  5.052283494860724 9.328870130343036 0  0.6723431162417803 6.200433195389051 0  1.875 0 0  1.549291932862476 0.6390212382365446 0  6.21139096239505 1.923390547229892 0  4.152576989347208 2.459595351551795 0  5.050476204704109 1.495562853986229 0  9.348288366357405 4.949818072523935 0  0 4.375 0  5.971911740025946 0.6301946467015171 0  3.259489089776259 2.574035544092853 0  4.453321835805339 6.571835098730658 0  3.125 10 0  8.739169531583208 1.951644066391377 0  9.378669592542254 2.643950573017813 0  8.116435035031106 2.513805545071047 0  6.638595351572846 2.50537245267725 0  7.261010404021443 6.896819043068465 0  8.109268203102822 1.25668035103298 0  7.499070367747349 0.6259293959838862 0  3.803354572726946 9.327440761045327 0  5.625 10 0  0 1.875 0  10 4.375 0  0 6.875 0  6.875 0 0  0.625 0 0  0 0.625 0  0.625 10 0  6.875 10 0  8.125 0 0  10 8.125 0  10 0.625 0  10 1.875 0  3.125 0 0  1.875 10 0  5.625 0 0  4.375 10 0  10 5.625 0  0 5.625 0  4.375 0 0  9.375 0 0  8.125 10 0  0 9.375 0  10 9.375 0  9.375 10 0  4.124636214849647 7.585686737904448 0  3.226311222126587 4.344714271864214 0  7.453081909415364 3.138186203303845 0  6.023602759614032 8.127401266051624 0  8.113652109834199 8.753213411463918 0  6.871364138431048 8.74618709364416 0  7.503701808903232 9.378700745430104 0  1.522824227845408 4.775917933203273 0  6.852433445057831 1.263542672082663 0  2.395702172884109 4.69892519046945 0  7.484233723571037 1.89641294923239 0  1.476280462378535 5.950382956163246 0  9.382187377079948 8.742810580703335 0  8.742465815831727 9.352913573694233 0  8.742810580703335 0.6178126229200519 0  9.352913573694233 1.257534184168274 0  3.006155193467456 1.962367273432881 0  7.223215083845321 8.156989587839728 0  1.271719100451898 9.396653327112993 0  0.5179759976288465 7.8125 0  5.438213071062911 2.525234329686767 0  8.316148260887561 4.355807401641232 0  1.206821491497361 1.872776676101541 0  0.5769084626609742 2.389014696033135 0  6.303502337897015 9.421005435886736 0  2.458997820199305 3.025074747392433 0  1.3252158116452 3.032752655221394 0  7.222105560298839 4.528900906124603 0  0.5716884255903881 1.234925952412458 0  8.643913084898211 3.151617408172255 0  0.609052490321687 5.079138898173932 0  1.456399801971225 5.334887398767092 0  6.290704232717009 6.184739386752334 0  4.852836612747218 0.5704278826615091 0  4.421790344198421 1.47250102483893 0  1.126283477763049 8.174901644214513 0  1.129018063831073 7.078996263309201 0  4.725919873842514 8.575629199064023 0  3.250125771060453 9.44782441806348 0  8.544164743213932 5.572190078245881 0  2.394930872635468 8.015687177523562 0  1.862254413972926 1.386146389339021 0  8.365561237443726 8.274388495585752 0  5.193549842664885 6.532104764905914 0  5.514324218182338 6.960757910718654 0  1.795478788511246 8.434091254567177 0  2.849161950879783 8.728105463299293 0  9.184221647751215 3.791765304398627 0  7.489470574113465 5.401001875975131 0  6.528693214247355 4.975104456402571 0  9.252272670425468 6.887450909966467 0  5 3.484451236194627 0  4.913578495087319 2.439075971750351 0  5.574304159837545 1.38397330585346 0  7.917911770841194 6.01182996302364 0  4.647881031951949 7.469102910678543 0  1.358446282839421 4.174584348637395 0  3.490935334304721 4.795755635313538 0  6.41070810116663
[...]
<CellData  Scalars="detF"> 
<DataArray  type="Float64"  Name="detF"  format="ascii">9.2644989616850271e-01   1.0430054667584703e+00   9.7893563649289028e-01   9.9506669366965028e-01   9.9491086671751250e-01   1.0378048681714405e+00   3.3436929972020352e-01   9.5409042052459880e-01   1.0486129102725608e+00   1.0432238769388293e+00   1.0095257184631918e+00   1.0377297845002220e+00   8.7627579553841750e-01   9.8099476496024285e-01   9.3152609813947884e-01   9.0882581728459566e-01   8.6640903909704126e-01   1.0305862151437564e+00   9.9379854356894282e-01   5.6650706886594049e-01   9.3351686659909494e-01   9.3708586046831954e-01   1.0258349519032133e+00   9.1400359225392125e-01   9.3922372264162135e-01   1.0432307055256831e+00   9.7666355678780314e-01   9.8088008234819157e-01   9.7385200030262986e-01   8.1904371436296486e-01   7.8611547987052088e-01   9.9040348295091574e-01   1.0262895299909733e+00   9.2615307493315402e-01   3.2986913411976887e-01   9.8672677236676576e-01   8.8559745163361847e-01   1.0118791103053753e+00   9.7318790279751444e-01   9.2014429062590053e-01   1.0438674590008399e+00   9.4701126659144563e-01   1.0415947726343338e+00   9.6071397569877759e-01   8.9909400335400047e-01   9.9948772953583676e-01   1.0425725102428671e+00   9.5810846492790169e-01   1.0179460967117937e+00   9.5690962742018859e-01   8.2352401476966064e-01   8.7686230102756602e-01   1.0310652056373881e+00   9.2214022542943030e-01   1.0249397507674127e+00   1.0433856268082764e+00   1.0464149249914469e+00   1.0250697415247714e+00   9.7571880636086239e-01   9.1659486652128230e-01   9.5238194305987234e-01   9.2500927071799777e-01   9.2275379853312500e-01   1.0321303313658279e+00   1.0450109631028042e+00   9.2367573153178817e-01   9.2612711494210009e-01   8.6619111698578177e-01   1.0515779218192927e+00   9.9958938326242752e-01   9.7393174918726966e-01   1.0292587002638185e+00   1.0466759695020893e+00   1.0522075646044871e+00   1.0443842899777447e+00   1.0445078067495515e+00   1.0406039143976367e+00   1.0302188312625495e+00   1.0353901824107006e+00   9.5066728106155196e-01   1.0233703285297522e+00   1.0439513017970292e+00   1.0355784442459244e+00   1.0422989247264072e+00   1.0530217894746121e+00   1.0526041799968040e+00   9.6725074751645213e-01   1.0268105719499676e+00   1.0419618081912772e+00   1.0365354224970740e+00   9.3761733909974920e-01   9.0692074185703409e-01   1.0454519918296199e+00   1.0442264009939271e+00   1.0338180873780360e+00   9.6553869039058915e-01   9.8288114144343930e-01   9.2641576471407017e-01   1.0376699593299319e+00   1.0470618358822161e+00   1.0572913245173525e+00   1.0390607058483357e+00   1.0512884866971328e+00   1.0377697972329112e+00   1.0605638947984817e+00   1.0341905012057830e+00   1.0530503866253480e+00   1.0487973148061689e+00   1.0462638697667270e+00   1.0462881141386129e+00   1.0477322083836980e+00   9.6344008694201499e-01   1.0169072712230516e+00   1.0485093555828979e+00   1.0406116591170633e+00   1.0357501452147277e+00   1.0145675969899841e+00   1.0435538039288095e+00   1.0413364720261835e+00   1.0254919456519709e+00   1.0365497052385024e+00   1.0093681393035434e+00   1.0052883874224703e+00   1.0497486118053536e+00   1.0491883114073712e+00   1.0406851823867036e+00   1.0416196953600312e+00   1.0456745773368410e+00   8.8143001361650763e-01   9.6960181379651322e-01   9.7549174340937850e-01   1.0358125684521022e+00   8.8352576341156963e-01   6.5349089209728184e-01   1.0449725145434372e+00   1.0520917578141340e+00   1.0502314950095921e+00   9.9197290284720474e-01   1.0252566064246942e+00   1.0440900787233143e+00   1.0435527637220510e+00   1.0095155851513382e+00   1.0510425681871394e+00   1.0456476413388784e+00   1.0501408533838161e+00   1.0457353372171565e+00   1.0496781234141113e+00   1.0469249105391312e+00   1.0361727932243516e+00   1.0517867368805951e+00   1.0306339586323301e+00   1.0338603017240535e+00   1.0389552816601990e+00   1.0362119395179692e+00   1.0294151465618580e+00   1.0448355286046729e+00   1.0449394426972902e+00   1.0437356000822504e+00   1.0434578566101984e+00   1.0426940951007011e+00   1.0390694116493759e+00   1.0412718935863745e+00   1.0356670166510704e+00   1.0437840362599702e+00   1.0462599420575109e+00   1.0415373063110369e+00   1.0438691564359943e+00   1.0440176737885962e+00   1.0430921467256209e+00   1.0398136939306599e+00   1.0439446066424865e+00   1.0445568804633663e+00   1.0372900189114320e+00   1.0457210775829882e+00   1.0478326153262700e+00   1.0483173150478964e+00   1.0340566261071220e+00   1.0323868585973814e+00   1.0418986907835937e+00   1.0432513604986495e+00   1.0366195123778563e+00   1.0463013391382618e+00   1.0505869044547003e+00   1.0448944494195216e+00   1.0547965416459701e+00   9.8864625861748012e-01   9.8104134205968463e-01   1.0430289458540558e+00   1.0365990475260236e+00   1.0459552813642088e+00   1.0409451659483226e+00   1.0478973103575238e+00   1.0506958215009390e+00   1.0409207477412263e+00   1.0348330818436899e+00   1.0462365742531414e+00   1.0351626102511668e+00   1.0384802662638948e+00   1.0505476204850508e+00   3.7254313886308421e-01   9.3068772865736771e-01   1.0430358437077800e+00   1.0414676565997538e+00   9.4025274034978168e-01   1.0204162098670952e+00   1.0437298623516102e+00   1.0414170478941256e+00   1.0408081451541222e+00   1.0398003234563247e+00   1.0307532602798579e+00   1.0322917611418561e+00   1.0248960927512571e+00   9.8985986485713151e-01   1.0323760577308079e+00   1.0398814400886529e+00   1.0449086101920764e+00   1.0471929795339212e+00   9.9868030933236263e-01   1.0054704392236495e+00   7.7770189375762067e-01   9.2315707422990823e-01   1.0501349772755713e+00   1.0521583991282670e+00   1.0436021302455882e+00   1.0273364321300691e+00   1.0401891449816749e+00   1.0156616495014958e+00   9.7073609324694199e-01   9.9299644954840194e-01   1.0404854685850227e+00   1.0354026719418354e+00   1.0366870060351019e+00   1.0335569471695893e+00   1.0216257302253757e+00   1.0357963813194966e+00   1.0447901933938879e+00   1.0461483953359083e+00   1.0517619312600430e+00   9.1255199647654750e-01   9.3488854839005009e-01   1.0364205465654448e+00   1.0392932918960689e+00   3.2645389827686233e-01   8.9386895257257026e-01   9.8164651037769080e-01   9.7574778738536683e-01   9.4744438278439969e-01   9.4690004475497591e-01   1.0443939515556901e+00   1.0492900905489484e+00   1.0456647772603906e+00   1.0459662491779798e+00   1.0465176290902509e+00   1.0458472811987902e+00   1.0455715546803017e+00   1.0451161451249666e+00   1.0436158292170394e+00   1.0495769635263048e+00   1.0521859613827578e+00   1.0403645353785129e+00   1.0428492384496197e+00   1.0460530067289371e+00   1.0451858985602156e+00   9.7108939328430299e-01   1.0460464221885712e+00   1.0482501462955591e+00   1.0375266355404109e+00   1.0246916814864047e+00   9.3646520625626173e-01   9.2730974051426862e-01   1.0476680158792377e+00   1.0487273763522056e+00   1.0563349014916139e+00   1.0551372376035462e+00   1.0384854905153229e+00   1.0387239488248987e+00   1.0423799476809583e+00   1.0374234476286623e+00   1.0355298675499751e+00   1.0303210701991092e+00   1.0341864437382546e+00   1.0025921462167546e+00   1.0135108943827091e+00   1.0439370414475391e+00   1.0529419236487028e+00   1.0542872131830594e+00   1.0547305262699735e+00   1.0510358682175633e+00   1.0534009382639165e+00   1.0455422913038994e+00   1.0341725553294820e+00   7.9476892244343145e-01   9.6797267962369660e-01   1.0508829566501661e+00   1.0563162690790597e+00   1.0448052505355052e+00   1.0454108033251712e+00   1.0445280619911057e+00   1.0442878264640463e+00   1.0454485091259693e+00   1.0440672702920570e+00   1.0379444594728617e+00   1.0405711218132470e+00   1.0383203514900587e+00   1.0414778129582658e+00   1.0424094817435146e+00   1.0445174945660305e+00   1.0496447114156826e+00   1.0473263145383336e+00   1.0533265939881946e+00   1.0423529174086621e+00   1.0584556062606165e+00   1.0493999016001856e+00   1.0502794086192206e+00   1.0271260642862756e+00   1.0324903120284867e+00   1.0305592266474271e+00   1.0304315104312598e+00   1.0513131955783730e+00   1.0471072005507129e+00   1.0358769927538367e+00   1.0431390992676415e+00   1.0443984447057031e+00   1.0305903066164490e+00   1.0404388300646035e+00   1.0307363351778280e+00   1.0548518125682627e+00   1.0459414684402200e+00   1.0340144534244500e+00   1.0602724166565682e+00   1.0569882865421913e+00   1.0493080338392420e+00   1.0532972082322525e+00   1.0373436840577337e+00   1.0414053576789501e+00   1.0296700809342461e+00   1.0294455456547067e+00   1.0061365514534200e+00   1.0230415405741804e+00   9.5909277860275854e-01   1.0191255952921663e+00   1.0425039016839071e+00   1.0461485856608650e+00   1.0383751617485051e+00   1.0445885869250342e+00   1.0442325660337279e+00   1.0423972195143618e+00   1.0463896568810886e+00   1.0458975921965030e+00   1.0427049200357996e+00   1.0501279128523220e+00   1.0402069613374236e+00   1.0472525655463802e+00   1.0446637350442991e+00   1.0283650929692916e+00   1.0233344891219305e+00   1.0453865123613668e+00   1.0435824713900068e+00   1.0464963032720405e+00   1.0402207378036397e+00   1.0319458192073336e+00   1.0383506707268289e+00   1.0341517135912670e+00   1.0336894662117826e+00   1.0346896306416453e+00   1.0390480323292233e+00   1.0378738699853567e+00   1.0455098284971727e+00   1.0429149530743416e+00   1.0471895519386019e+00   1.0309977071251493e+00   1.0460190312021080e+00   1.0399934756533085e+00   9.9088599936157451e-01   9.7273471606299688e-01   1.0403940855829752e+00   1.0466670540862040e+00   1.0382732420170873e+00   1.0446678753652994e+00   1.0440787413878112e+00   1.0561140088266470e+00   1.0446159106105355e+00   1.0456405601573093e+00   1.0447987619691110e+00   1.0443855857017785e+00   9.9960601454876463e-01   1.0187218075039703e+00   1.0339400497491709e+00   1.0439540867703374e+00   1.0456405418916501e+00   1.0560911514734899e+00   1.0388052933363723e+00   1.0459954571723897e+00   1.0098975582245386e+00   9.9093840610893602e-01   1.0501727097948619e+00   1.0432813714435352e+00   1.0333075498965911e+00   1.0440988632889390e+00   1.0423757857061409e+00   1.0451340223562355e+00   1.0458489683055148e+00   1.0373968839349805e+00   1.0412627864196324e+00   1.0456409543191891e+00   1.0405055239775935e+00   1.0435287546857104e+00   1.0463218255002809e+00   1.0378139032545837e+00   1.0415623588296925e+00   1.0415782786966878e+00   1.0407505055763440e+00   9.1875155529919539e-01   5.5534682427615067e-01   1.0286231973741922e+00   9.6435170441890894e-01   1.0383625106846968e+00   1.0421039294538823e+00   1.0475900812763101e+00   1.0456869123523977e+00   1.0539326278504986e+00   1.0430605511667126e+00   1.0131766258898018e+00   1.0167045758400151e+00   9.2399785391441380e-01   9.3535638117846032e-01   1.0442012983414970e+00   1.0480474115455112e+00   8.3343793680928235e-01   9.0571793960779989e-01   9.8851089023164196e-01   1.0251669683973916e+00   1.0474042794730933e+00   1.0391457511587225e+00   1.0400543319494715e+00   1.0376347461611020e+00   1.0276941067228500e+00   1.0268828388876980e+00   1.0465864675220733e+00   1.0445724081051775e+00   9.5083874171627702e-01   9.4515051190793764e-01   1.0035240873228826e+00   9.9309458047744770e-01   1.0446493796437624e+00   1.0444515354603505e+00   1.0428201485298272e+00   1.0413943805495702e+00   1.0445290946600236e+00   1.0385414822169663e+00   1.0192441840129773e+00   1.0309054901662444e+00   1.0567150877891238e+00   1.0515624127229140e+00   1.0496157128935153e+00   1.0557083663425331e+00   1.0598504996092304e+00   1.0461469394633192e+00   1.0436894143374329e+00   1.0394388426545724e+00   9.7585390303138841e-01   9.9457241417081854e-01   1.0190738543629259e+00   9.8453903060183001e-01   1.0456316002105115e+00   1.0443383623545139e+00   1.0291680796769478e+00   1.0386694332656963e+00   1.0190224453833787e+00   1.0194550127402708e+00   1.0455969584458875e+00   1.0423513344624711e+00   1.0440647402988568e+00   1.0462598520883921e+00   1.0442514731585664e+00   1.0459198225752593e+00   1.0276507083470727e+00   9.0253749115009640e-01   1.0467125475021704e+00   1.0453177839556598e+00   1.0404388138653942e+00   1.0417866478406224e+00   1.0462243442567698e+00   1.0408898384206693e+00   1.0470681285321446e+00   1.0457482504608571e+00   1.0491759327415993e+00   1.0424725993528043e+00   1.0460869508095287e+00   1.0409022864009494e+00   1.0448776607231998e+00   1.0172948845028824e+00   1.0266143312733143e+00   1.0372537315426815e+00   1.0253681678200501e+00   1.0545143063975240e+00   1.0539779759436103e+00   1.0345374445092346e+00   1.0376091446720903e+00   1.0490231624392075e+00   1.0403401928541653e+00   1.0611014625930302e+00   1.0552147658099273e+00   1.0510599889193841e+00   1.0270238846288064e+00   1.0065385955454018e+00   9.8772122118317929e-01   9.9363562927172533e-01   1.0544753043936523e+00   1.0442098037671135e+00   1.0448868561299587e+00   1.0431579044366517e+00   1.0460769489767774e+00   1.0471088373447608e+00   1.0481135647504962e+00   1.0448854210945315e+00   1.0416864937676642e+00   1.0443833238253390e+00   1.0522523507806183e+00   1.0548114849629684e+00   1.0311526247146801e+00   1.0266584266204442e+00   9.8914149995271983e-01   1.0211241423435766e+00   1.0401310089058868e+00   1.0416138060291291e+00   1.0413991029226788e+00   1.0414971104731761e+00   1.0365625507900658e+00   1.0331107764728542e+00   1.0470430773106894e+00   1.0434892164846505e+00   1.0439581900712898e+00   1.0457835088932932e+00   1.0498365986665346e+00   1.0491271659969466e+00   1.0235308630222111e+00   1.0302626176773035e+00   1.0010735953941221e+00   9.4576007139858997e-01   9.3794363324638375e-01   9.4565999191898398e-01   1.0549224929996039e+00   1.0548295260522242e+00   1.0448702825678855e+00   1.0435540643338514e+00   1.0280843330095029e+00   1.0069398676111516e+00   1.0445260797733302e+00   1.0388825638802799e+00   1.0111725816551353e+00   1.0135171594692103e+00   1.0337095047577400e+00   1.0354536982915494e+00   1.0177071101887636e+00   1.0113037751840324e+00   1.0429413348376544e+00   1.0444733246613227e+00   1.0083814780357920e+00   1.0230037210416971e+00   9.9139699567595263e-01   1.0038697388888307e+00   1.0406256904070121e+00   1.0222615343632127e+00   1.0265103601997263e+00   1.0117838187336115e+00   1.0205794531119305e+00   1.0005530833174567e+00   1.0294745710106949e+00   1.0334379849178186e+00   1.0271973011264222e+00   1.0392404105491744e+00   1.0405955636524207e+00   1.0391866219551493e+00   1.0405050903343942e+00   1.0341336347560770e+00   1.0417947271272097e+00   1.0378107524159021e+00   1.0414339024725465e+00   1.0407363735069306e+00   1.0380367240104662e+00   1.0419726962127107e+00   1.0443303790777667e+00   1.0405903828397443e+00   1.0326608134785360e+00   1.0335363914801217e+00   1.0305899885194381e+00   1.0417319491051604e+00   1.0435567176130165e+00   1.0415705862700786e+00   1.0431322677018711e+00   1.0381200825107735e+00   1.0393881642601985e+00   1.0435216540901211e+00   1.0427702060438349e+00   1.0395968222042824e+00   1.0377964550244783e+00   1.0355688246470465e+00   1.0376182703653243e+00   1.0398547021517279e+00   1.0416385188935984e+00   1.0416066305883902e+00   1.0340732714233201e+00   1.0356340507898254e+00   1.0449132899635665e+00   1.0426037495253668e+00   1.0450588434912267e+00   1.0443333179430798e+00   1.0454063958864328e+00   1.0440445204162416e+00   1.0487017609870015e+00   1.0484913212682454e+00   1.0464641130783976e+00   1.0444965906990664e+00   1.0202353842790775e+00   1.0156389333961187e+00   1.0493387746009977e+00   1.0449784526556267e+00   1.0434623037786941e+00   1.0269880977322443e+00   1.0257676326105869e+00   1.0219352102289128e+00   1.0283507996872474e+00   1.0213438876609073e+00   1.0258004353752916e+00   1.0235435097715513e+00   1.0258033318547766e+00   1.0217728521509502e+00   9.2207938048684124e-01   9.4060621908420528e-01   1.0419108158483361e+00   1.0458300334288768e+00   1.0513218274336882e+00   1.0481437402959863e+00   1.0528653703408466e+00   1.0530202806924163e+00   1.0593394416001474e+00   1.0506037126856502e+00   9.8820881691294238e-01   1.0264708787986323e+00   1.0480186439673147e+00   1.0476790466421062e+00   1.0441430420196860e+00   1.0404051861798684e+00   1.0501783188649296e+00   1.0485149335038646e+00   1.0549362165663898e+00   1.0514271279529632e+00   1.0457739920568971e+00   1.0476641631889734e+00   1.0146010414035798e+00   1.0026533746045769e+00   1.0506699494478275e+00   1.0531292859584671e+00   1.0430316683501053e+00   1.0434043791418230e+00   1.0421650270410985e+00   1.0397133605044824e+00   1.0358563791115041e+00   1.0362654738193335e+00   1.0362263544161960e+00   1.0432130789853458e+00   1.0410900672209531e+00   9.9443869704478582e-01   9.8513638984164487e-01   9.2318478177653918e-01   9.7320207836052797e-01   1.0458743102753598e+00   1.0452610915407070e+00   1.0418311713135240e+00   1.0325242588086001e+00   1.0022841273757230e+00   1.0214314383297558e+00   1.0243622884181234e+00   1.0269119525986237e+00   1.0495174766528745e+00   1.0541046654500434e+00   1.0360050518833095e+00   1.0396737368968898e+00   1.0275991204365287e+00   1.0330398296838357e+00   1.0422169167167397e+00   1.0469357149239402e+00   1.0368873725985051e+00   1.0519073271119135e+00   1.0563617845936886e+00   1.0543333639301971e+00   1.0581323201158799e+00   1.0377298709969525e+00   1.0450054456587745e+00   1.0340206731972217e+00   1.0325289955072732e+00   1.0499562925097581e+00   7.2158948307269111e-01   8.3437028779938771e-01   9.7181454820249269e-01   9.5243857585567604e-01   1.0494709296614633e+00   1.0538065168055724e+00   1.0553799130026820e+00   1.0441578342281916e+00   1.0426645040812219e+00   1.0345836742607106e+00   1.0363418250261185e+00   1.0412613770237631e+00   1.0408158529818681e+00   9.3715687966293493e-01   8.7235124889877635e-01   1.0452071769706481e+00   1.0309530214857145e+00   1.0346117701190858e+00   1.0271808945200689e+00   1.0470306495945334e+00   1.0404296695057067e+00   1.0219823162057604e+00   1.0094070050588850e+00   1.0374478256993334e+00   1.0349378080172158e+00   1.0439218541471842e+00   1.0455024072072323e+00   1.0437297697153896e+00   1.0429520270352843e+00   1.0514344733615031e+00   1.0524785169671622e+00   1.0527949447574763e+00   1.0566795309499981e+00   1.0524823942034423e+00   1.0528600370237433e+00   1.0477050421017930e+00   1.0519745515791721e+00   1.0593280760813328e+00   1.0438580321310003e+00   1.0432399753789809e+00   1.0444696845444419e+00   1.0449354565789168e+00   1.0399555286528952e+00   1.0447307623969979e+00   1.0320871988933182e+00   1.0189456207774767e+00   1.0341893507738960e+00   1.0292985812663551e+00   1.0506867595135847e+00   1.0188825053157566e+00   9.9079324990690765e-01   1.0382921770065079e+00   1.0371270530753256e+00   1.0538296943239662e+00   1.0527099834816727e+00   1.0458434351241273e+00   1.0447875649403167e+00   1.0472912896150197e+00   1.0445851000438537e+00   1.0422764555406747e+00   1.0424484961986402e+00   9.3582559104179464e-01   9.8269561165914787e-01   1.0419335083547914e+00   1.0266492020728015e+00   1.0436776336704987e+00   1.0488976364560116e+00   1.0477603943779707e+00   1.0415387130639402e+00   1.0523739989456666e+00   1.0427954537651736e+00   1.0378562308785291e+00   9.4520595131768492e-01   9.1047739548556461e-01   1.0250487368719172e+00   1.0302496120379185e+00   1.0247299481836531e+00   1.0280599330163758e+00   1.0457587789057907e+00   1.0438571317116776e+00   9.4875477137870623e-01   9.0075499412644267e-01   1.0295752287029392e+00   1.0329277727082016e+00   1.0395741544377963e+00   1.0358161467494156e+00   1.0451940763045937e+00   1.0478458462824267e+00   1.0430867153980152e+00   1.0451911896289190e+00   1.0268690435788843e+00   1.0365260114633590e+00   1.0099444925502881e+00   9.9978354575595452e-01   1.0165386023730940e+00   1.0346181569455828e+00   3.3073046308164294e-01   6.8374531591949339e-01   1.0381587757320918e+00   1.0108789673952749e+00   9.9453795024907099e-01   9.8196456054518155e-01   9.5527372296178259e-01   1.00096034888810