<?xml version="1.0"?>
<VTKFile type="UnstructuredGrid"  version="0.1"  >
<UnstructuredGrid>
<Piece  NumberOfPoints="12711" NumberOfCells="24846">
<Points>
<DataArray  type="Float64"  NumberOfComponents="3"  format="ascii">0 10 0  0 0 0  10 0 0  10 10 0  5.992114701314478 5.125333233564304 0  6 5 0  5.992114701314478 4.874666766435696 0  5.968583161128631 4.751310112835145 0  5.929776485888252 4.631875447315323 0  5.876306680043863 4.518246325898284 0  5.809016994374947 4.412214747707527 0  5.728968627421411 4.315452894071311 0  5.637423989748689 4.22948675722421 0  5.535826794978997 4.155672074497985 0  5.425779291565072 4.09517294753398 0  5.309016994374947 4.048943483704846 0  5.187381314585724 4.017712749271311 0  5.062790519529313 4.001973271571728 0  4.937209480470687 4.001973271571728 0  4.812618685414275 4.017712749271311 0  4.690983005625053 4.048943483704846 0  4.574220708434928 4.09517294753398 0  4.464173205021003 4.155672074497985 0  4.362576010251311 4.229486757224211 0  4.271031372578588 4.315452894071312 0  4.190983005625053 4.412214747707528 0  4.123693319956137 4.518246325898285 0  4.070223514111748 4.631875447315322 0  4.031416838871369 4.751310112835146 0  4.007885298685522 4.874666766435696 0  4 5 0  4.007885298685522 5.125333233564304 0  4.031416838871369 5.248689887164855 0  4.070223514111749 5.368124552684678 0  4.123693319956137 5.481753674101715 0  4.190983005625053 5.587785252292473 0  4.271031372578589 5.684547105928689 0  4.36257601025131 5.770513242775789 0  4.464173205021003 5.844327925502015 0  4.574220708434927 5.904827052466019 0  4.690983005625053 5.951056516295154 0  4.812618685414275 5.982287250728689 0  4.937209480470687 5.998026728428272 0  5.062790519529313 5.998026728428272 0  5.187381314585725 5.982287250728689 0  5.309016994374947 5.951056516295154 0  5.425779291565073 5.90482705246602 0  5.535826794978997 5.844327925502015 0  5.63742398974869 5.770513242775789 0  5.728968627421412 5.684547105928688 0  5.809016994374947 5.587785252292473 0  5.876306680043863 5.481753674101715 0  5.929776485888252 5.368124552684678 0  5.968583161128631 5.248689887164855 0  5 0 0  5 10 0  0 5 0  10 5 0  0 2.5 0  2.5 0 0  0 7.5 0  10 7.5 0  7.5 10 0  10 2.5 0  7.5 0 0  2.5 10 0  7.485014227815469 7.485014227815468 0  2.624291547813317 2.470127454275751 0  2.624291547813306 7.529872545724244 0  7.485014227815469 2.514985772184531 0  4.620446423227826 8.004475929833612 0  4.620446423227826 1.995524070166387 0  8.009762413667167 5.50092484241762 0  2 5.188744001760954 0  6.25 8.749910705909175 0  6.231734626560344 1.268136995742228 0  8.652134543612291 3.848955432239774 0  8.735102992990898 1.264897007009102 0  1.298640613344511 8.70135938665549 0  1.298640613344514 1.298640613344514 0  8.735102992990898 8.735102992990898 0  1.32486817239184 3.602721496273811 0  0 6.25 0  5.927313115200329 7.301462900913446 0  6.018514784896791 2.73575273859121 0  1.46012754946627 6.586509713609103 0  3.375412750820398 8.805858133461292 0  3.75 0 0  7.210287463492858 3.959917668469034 0  8.746887821637173 6.757315261531288 0  2.75427163560592 3.930963631533782 0  3.125 1.20674210234345 0  2.943794974478871 6.190871022350711 0  6.825732469488118 6.378522665594295 0  8.743010011192087 2.591891574357684 0  7.483399585327811 1.251663284750698 0  0 3.75 0  1.25 0 0  0 1.25 0  0 8.75 0  1.25 10 0  10 1.25 0  6.25 0 0  8.75 0 0  6.25 10 0  10 3.75 0  10 6.25 0  10 8.75 0  8.75 10 0  3.75 10 0  3.810152138366983 3.022631036742028 0  7.492462995777718 8.727654225028648 0  3.920711873054401 6.96954794442357 0  1.160966450995929 2.452397487456289 0  4.375 0.9149815118452254 0  0.9534467980924162 5.587666637777538 0  9.059920331215721 5.729227516799859 0  1.092141083367926 7.622001080218721 0  2.347167458039906 8.552074467977752 0  7.035390514030324 5.128055916921455 0  5.003122498127488 2.963143307567926 0  4.942871952047775 7.021490037253216 0  4.428923243843399 9.074762154804601 0  0.9313086115777203 4.556301549197934 0  2.983895043982564 4.923718037128732 0  8.475490130958471 7.744627089847896 0  7.789009478636881 6.554228521251022 0  3.63520742506862 2.051437667164196 0  8.707401663528154 4.821324829872955 0  3.533550877963555 7.853698443855794 0  5.339287008234124 0.9027094569265255 0  5.297648561497755 8.677937622222498 0  2.1952343317288 0.9230673988174298 0  8.075984025010529 3.175487740708776 0  1.898758825823051 1.95534337194406 0  1.875 9.373178164734556 0  9.374824554239121 1.875 0  8.125 9.374824554239121 0  9.374824554239121 8.125 0  8.125 0.6251754457608796 0  8.102651320356042 1.882534099549675 0  5.555834842392044 1.91923664117996 0  6.865782670338777 1.884114931596786 0  6.64627760167333 7.901459339370077 0  6.882493169332692 9.367462718860255 0  9.360276396535061 0.639723603464939 0  0.6718845514179709 9.328115448582029 0  0.6718845514179738 0.671884551417974 0  9.360276396535061 9.360276396535061 0  6.849445628625583 0.6428340415263989 0  0.6252707365992336 6.872955555725 0  7.779789619335941 4.642347291880305 0  1.920367323438066 4.285936742177812 0  1.886879328762172 2.935805792644626 0  0 3.125 0  10 3.125 0  6.829064276033837 3.138852187255846 0  9.362544582254804 4.296332770792826 0  0.6294854495481924 1.803884990381194 0  5.723867456876992 9.374955352954586 0  6.234430185778811 3.68546536771353 0  0 8.125 0  3.586768667647489 3.83082576879668 0  1.876243471497236 7.875738773857043 0  2.107188557886428 6.033287377979783 0  2.401726318101464 6.769145918164444 0  6.677644360454483 7.133114086704463 0  3.153172063084042 6.930340955888605 0  9.202503567680719 3.256925918678836 0  5.40362522057331 7.894159836946178 0  5.847572751594044 6.541729111728994 0  9.151562748582334 7.399512082113663 0  2.72169183938259 9.244571098971553 0  4.027166877117502 8.450590314684476 0  7.406261223937218 5.924226876880179 0  6.656991742980741 4.461610746210265 0  3.019302513935811 3.171181436845406 0  8.42963329327514 6.099017498410762 0  7.929628714672585 3.883876234709687 0  2.505719997716461 1.570953349337789 0  10 6.875 0  5.582664826527307 3.385861901793781 0  0.6385265297852114 8.4375 0  3.716483847114921 6.223618070713637 0  2.631969561453143 5.546792065808645 0  3.362397364365777 5.548428728085521 0  0.7588267982127279 3.096534204957019 0  7.851992675295601 8.104156769365778 0  2.913279681839236 8.156884513848921 0  8.096891386573146 7.169818345867771 0  2.798761766443515 0.6104864041175854 0  3.671506264062989 0.7245683763958539 0  3.867863724792883 1.393871234092059 0  1.649817747458113 7.237052684909195 0  4.426192956891247 3.3850570800063 0  9.319293531819399 6.369901553367093 0  2.123193757988123 3.605425148679854 0  6.579499709872288 5.69442892829178 0  0.6870138590775676 3.897472165971907 0  5.052283494860724 9.328870130343036 0  0.6723431162417803 6.200433195389051 0  1.875 0 0  1.549291932862476 0.6390212382365446 0  6.21139096239505 1.923390547229892 0  4.152576989347208 2.459595351551795 0  5.050476204704109 1.495562853986229 0  9.348288366357405 4.949818072523935 0  0 4.375 0  5.971911740025946 0.6301946467015171 0  3.259489089776259 2.574035544092853 0  4.453321835805339 6.571835098730658 0  3.125 10 0  8.739169531583208 1.951644066391377 0  9.378669592542254 2.643950573017813 0  8.116435035031106 2.513805545071047 0  6.638595351572846 2.50537245267725 0  7.261010404021443 6.896819043068465 0  8.109268203102822 1.25668035103298 0  7.499070367747349 0.6259293959838862 0  3.803354572726946 9.327440761045327 0  5.625 10 0  0 1.875 0  10 4.375 0  0 6.875 0  6.875 0 0  0.625 0 0  0 0.625 0  0.625 10 0  6.875 10 0  8.125 0 0  10 8.125 0  10 0.625 0  10 1.875 0  3.125 0 0  1.875 10 0  5.625 0 0  4.375 10 0  10 5.625 0  0 5.625 0  4.375 0 0  9.375 0 0  8.125 10 0  0 9.375 0  10 9.375 0  9.375 10 0  4.124636214849647 7.585686737904448 0  3.226311222126587 4.344714271864214 0  7.453081909415364 3.138186203303845 0  6.023602759614032 8.127401266051624 0  8.113652109834199 8.753213411463918 0  6.871364138431048 8.74618709364416 0  7.503701808903232 9.378700745430104 0  1.522824227845408 4.775917933203273 0  6.852433445057831 1.263542672082663 0  2.395702172884109 4.69892519046945 0  7.484233723571037 1.89641294923239 0  1.476280462378535 5.950382956163246 0  9.382187377079948 8.742810580703335 0  8.742465815831727 9.352913573694233 0  8.742810580703335 0.6178126229200519 0  9.352913573694233 1.257534184168274 0  3.006155193467456 1.962367273432881 0  7.223215083845321 8.156989587839728 0  1.271719100451898 9.396653327112993 0  0.5179759976288465 7.8125 0  5.438213071062911 2.525234329686767 0  8.316148260887561 4.355807401641232 0  1.206821491497361 1.872776676101541 0  0.5769084626609742 2.389014696033135 0  6.303502337897015 9.421005435886736 0  2.458997820199305 3.025074747392433 0  1.3252158116452 3.032752655221394 0  7.222105560298839 4.528900906124603 0  0.5716884255903881 1.234925952412458 0  8.643913084898211 3.151617408172255 0  0.609052490321687 5.079138898173932 0  1.456399801971225 5.334887398767092 0  6.290704232717009 6.184739386752334 0  4.852836612747218 0.5704278826615091 0  4.421790344198421 1.47250102483893 0  1.126283477763049 8.174901644214513 0  1.129018063831073 7.078996263309201 0  4.725919873842514 8.575629199064023 0  3.250125771060453 9.44782441806348 0  8.544164743213932 5.572190078245881 0  2.394930872635468 8.015687177523562 0  1.862254413972926 1.386146389339021 0  8.365561237443726 8.274388495585752 0  5.193549842664885 6.532104764905914 0  5.514324218182338 6.960757910718654 0  1.795478788511246 8.434091254567177 0  2.849161950879783 8.728105463299293 0  9.184221647751215 3.791765304398627 0  7.489470574113465 5.401001875975131 0  6.528693214247355 4.975104456402571 0  9.252272670425468 6.887450909966467 0  5 3.484451236194627 0  4.913578495087319 2.439075971750351 0  5.574304159837545 1.38397330585346 0  7.917911770841194 6.01182996302364 0  4.647881031951949 7.469102910678543 0  1.358446282839421 4.174584348637395 0  3.490935334304721 4.795755635313538 0  6.41070810116663
[...]
<PointData  Vectors="u"> 
<DataArray  type="Float64"  Name="u"  NumberOfComponents="3" format="ascii">0.0000000000000000e+00 0.0000000000000000e+00 0.0000000000000000e+00  0.0000000000000000e+00 0.0000000000000000e+00 0.0000000000000000e+00  0.0000000000000000e+00 0.0000000000000000e+00 0.0000000000000000e+00  0.0000000000000000e+00 0.0000000000000000e+00 0.0000000000000000e+00  -4.8996701344609739e-01 -5.9551158395922045e-02 0.0000000000000000e+00  -4.9366195997579521e-01 -1.1501616865964449e-02 0.0000000000000000e+00  -4.9241266930728050e-01 4.8760898017297008e-02 0.0000000000000000e+00  -4.7467274266395487e-01 1.4032168152989033e-01 0.0000000000000000e+00  -4.5857235058196505e-01 1.8240763830525733e-01 0.0000000000000000e+00  -4.4017959723627303e-01 2.2587372017140414e-01 0.0000000000000000e+00  -3.9038424400537269e-01 3.0486324587065250e-01 0.0000000000000000e+00  -3.6209713811697769e-01 3.3616015280301637e-01 0.0000000000000000e+00  -3.1562019103138683e-01 3.8121997965696686e-01 0.0000000000000000e+00  -2.6175829112684940e-01 4.1892850544493865e-01 0.0000000000000000e+00  -2.2050557166025347e-01 4.4264477621223958e-01 0.0000000000000000e+00  -1.5489745400450780e-01 4.6924811893185114e-01 0.0000000000000000e+00  -1.0833975583694043e-01 4.8339153989725392e-01 0.0000000000000000e+00  -1.6634484714421201e-02 4.9445790075220070e-01 0.0000000000000000e+00  2.6877755710207649e-02 4.9294741001394876e-01 0.0000000000000000e+00  9.8621847634652468e-02 4.8453496081539710e-01 0.0000000000000000e+00  1.4466176056473046e-01 4.7388774012791618e-01 0.0000000000000000e+00  2.3023305180764958e-01 4.3845779066237534e-01 0.0000000000000000e+00  2.6280557119672426e-01 4.1809420283620125e-01 0.0000000000000000e+00  3.0684564074436677e-01 3.8922453526577377e-01 0.0000000000000000e+00  3.7028118624118583e-01 3.2809168193012100e-01 0.0000000000000000e+00  3.9361390135269009e-01 2.9941176586531937e-01 0.0000000000000000e+00  4.2565447638302739e-01 2.5337803482871035e-01 0.0000000000000000e+00  4.6471100425642414e-01 1.6898373959280646e-01 0.0000000000000000e+00  4.7696663334945283e-01 1.2899572990477806e-01 0.0000000000000000e+00  4.8796667714067138e-01 8.4986546471632632e-02 0.0000000000000000e+00  4.9488588101753128e-01 -8.1809681476767947e-03 0.0000000000000000e+00  4.8739424027943579e-01 -8.8224429253459732e-02 0.0000000000000000e+00  4.7779807040746830e-01 -1.2472498625589616e-01 0.0000000000000000e+00  4.6350637609908624e-01 -1.7425423820427341e-01 0.0000000000000000e+00  4.2621982737719100e-01 -2.5126231776209784e-01 0.0000000000000000e+00  4.0262120712005062e-01 -2.8587197688728216e-01 0.0000000000000000e+00  3.6789759344557016e-01 -3.3173557838137369e-01 0.0000000000000000e+00  3.0117702111323708e-01 -3.9278810441463574e-01 0.0000000000000000e+00  2.6516506776495224e-01 -4.1658092676589353e-01 0.0000000000000000e+00  2.1465260797182417e-01 -4.4565884847967702e-01 0.0000000000000000e+00  1.5907267372242770e-01 -4.6760177104391004e-01 0.0000000000000000e+00  1.2125458509685579e-01 -4.8009693098597039e-01 0.0000000000000000e+00  3.0389059835905671e-02 -4.9420546122084441e-01 0.0000000000000000e+00  -5.3154793298493951e-02 -4.9165794631720339e-01 0.0000000000000000e+00  -9.0314089843365766e-02 -4.8482558821181249e-01 0.0000000000000000e+00  -1.6883322370476042e-01 -4.6442548518162707e-01 0.0000000000000000e+00  -2.0767906818017082e-01 -4.4766535288301762e-01 0.0000000000000000e+00  -2.5241150213854530e-01 -4.2565653694916328e-01 0.0000000000000000e+00  -3.2821619327550389e-01 -3.7039055007173083e-01 0.0000000000000000e+00  -3.5868469027858985e-01 -3.3900833861930951e-01 0.0000000000000000e+00  -3.8742848721981971e-01 -3.0730338007862018e-01 0.0000000000000000e+00  -4.3693120392042556e-01 -2.2922612495205430e-01 0.0000000000000000e+00  -4.5478180759111836e-01 -1.9377479966676286e-01 0.0000000000000000e+00  -4.8284191890806993e-01 -1.0721555477977984e-01 0.0000000000000000e+00  0.0000000000000000e+00 0.0000000000000000e+00 0.0000000000000000e+00  0.0000000000000000e+00 0.0000000000000000e+00 0.0000000000000000e+00  0.0000000000000000e+00 0.0000000000000000e+00 0.0000000000000000e+00  0.0000000000000000e+00 0.0000000000000000e+00 0.0000000000000000e+00  0.0000000000000000e+00 0.0000000000000000e+00 0.0000000000000000e+00  0.0000000000000000e+00 0.0000000000000000e+00 0.0000000000000000e+00  0.0000000000000000e+00 0.0000000000000000e+00 0.0000000000000000e+00  0.0000000000000000e+00 0.0000000000000000e+00 0.0000000000000000e+00  0.0000000000000000e+00 0.0000000000000000e+00 0.0000000000000000e+00  0.0000000000000000e+00 0.0000000000000000e+00 0.0000000000000000e+00  0.0000000000000000e+00 0.0000000000000000e+00 0.0000000000000000e+00  0.0000000000000000e+00 0.0000000000000000e+00 0.0000000000000000e+00  -9.8628827934222577e-02 -9.8669287738863742e-02 0.0000000000000000e+00  9.9085142458061687e-02 1.0392460669321547e-01 0.0000000000000000e+00  9.9125804605041890e-02 -1.0340910374436549e-01 0.0000000000000000e+00  -9.8560761611137943e-02 9.9000387635235540e-02 0.0000000000000000e+00  2.4404126610759566e-02 -1.5704807511637808e-01 0.0000000000000000e+00  2.4371617788110620e-02 1.5775316169381534e-01 0.0000000000000000e+00  -1.5510768968969815e-01 -3.1450213581131682e-02 0.0000000000000000e+00  1.5999784089032548e-01 -1.2217537440056424e-02 0.0000000000000000e+00  -3.7249600963905706e-02 -7.9106772446635540e-02 0.0000000000000000e+00  -3.7492919135017518e-02 8.0928846572624863e-02 0.0000000000000000e+00  -8.7478434674401209e-02 3.8449577834574582e-02 0.0000000000000000e+00  -3.2368419280100598e-02 3.2413991188976331e-02 0.0000000000000000e+00  3.3859145121278404e-02 -3.3808387038398849e-02 0.0000000000000000e+00  3.3865165656273295e-02 3.3878984285232415e-02 0.0000000000000000e+00  -3.2357012163985732e-02 -3.2323144521421210e-02 0.0000000000000000e+00  8.1367445641724573e-02 4.2839334504543511e-02 0.0000000000000000e+00  0.0000000000000000e+00 0.0000000000000000e+00 0.0000000000000000e+00  -9.2018711469350922e-02 -2.0776885305172002e-01 0.0000000000000000e+00  -9.9821974030799301e-02 2.0515422452543017e-01 0.0000000000000000e+00  8.6131740356835212e-02 -5.0980641575901070e-02 0.0000000000000000e+00  4.1726226707356782e-02 -6.8998640433114850e-02 0.0000000000000000e+00  0.0000000000000000e+00 0.0000000000000000e+00 0.0000000000000000e+00  -2.0666266052659568e-01 1.0592421295167941e-01 0.0000000000000000e+00  -6.9641547842526380e-02 -4.5102638100809132e-02 0.0000000000000000e+00  2.0191902280998750e-01 1.0578662823472229e-01 0.0000000000000000e+00  4.4590503945469810e-02 6.5199322238515309e-02 0.0000000000000000e+00  2.0715286125558993e-01 -1.2809193869509308e-01 0.0000000000000000e+00  -2.0145506635643004e-01 -1.5677976966202412e-01 0.0000000000000000e+00  -5.6868930057914692e-02 4.7737035949804926e-02 0.0000000000000000e+00  -4.7276438911632919e-02 5.5453704067250482e-02 0.0000000000000000e+00  0.0000000000000000e+00 0.0000000000000000e+00 0.0000000000000000e+00  0.0000000000000000e+00 0.0000000000000000e+00 0.0000000000000000e+00  0.0000000000000000e+00 0.0000000000000000e+00 0.0000000000000000e+00  0.0000000000000000e+00 0.0000000000000000e+00 0.0000000000000000e+00  0.0000000000000000e+00 0.0000000000000000e+00 0.0000000000000000e+00  0.0000000000000000e+00 0.0000000000000000e+00 0.0000000000000000e+00  0.0000000000000000e+00 0.0000000000000000e+00 0.0000000000000000e+00  0.0000000000000000e+00 0.0000000000000000e+00 0.0000000000000000e+00  0.0000000000000000e+00 0.0000000000000000e+00 0.0000000000000000e+00  0.0000000000000000e+00 0.0000000000000000e+00 0.0000000000000000e+00  0.0000000000000000e+00 0.0000000000000000e+00 0.0000000000000000e+00  0.0000000000000000e+00 0.0000000000000000e+00 0.0000000000000000e+00  0.0000000000000000e+00 0.0000000000000000e+00 0.0000000000000000e+00  0.0000000000000000e+00 0.0000000000000000e+00 0.0000000000000000e+00  1.3493282687603855e-01 2.1342336215060770e-01 0.0000000000000000e+00  -4.7958163006774440e-02 -5.5971431765762580e-02 0.0000000000000000e+00  1.3116725506953256e-01 -2.2524815075754320e-01 0.0000000000000000e+00  5.0527915757442185e-02 4.4076690866780892e-02 0.0000000000000000e+00  1.5253391560737097e-02 6.2307004460723861e-02 0.0000000000000000e+00  6.5316492843198778e-02 -1.4855584199392442e-02 0.0000000000000000e+00  -6.3296617350525830e-02 -1.7922753781754744e-02 0.0000000000000000e+00  4.6465812471922469e-02 -4.1356949502929709e-02 0.0000000000000000e+00  5.3353266553140752e-02 -5.9644847192141449e-02 0.0000000000000000e+00  -2.8211864266674835e-01 -1.9898056316611314e-02 0.0000000000000000e+00  -7.4210230783196220e-04 2.8165047107865104e-01 0.0000000000000000e+00  9.3178704740640942e-03 -2.8017456653345951e-01 0.0000000000000000e+00  1.4153742070548144e-02 -6.3187050126886884e-02 0.0000000000000000e+00  6.4287178780251170e-02 1.1266677422271484e-02 0.0000000000000000e+00  2.8125791525355526e-01 1.0916377326788089e-02 0.0000000000000000e+00  -5.9934992369368625e-02 -5.4719954522336585e-02 0.0000000000000000e+00  -1.3352061216434247e-01 -8.4457028867589920e-02 0.0000000000000000e+00  7.1835151786702231e-02 1.3237021763146378e-01 0.0000000000000000e+00  -9.4613618604284189e-02 6.7042930837920428e-03 0.0000000000000000e+00  7.9784411038180195e-02 -1.3432954494906046e-01 0.0000000000000000e+00  -8.2637408892892641e-03 6.2857879423478397e-02 0.0000000000000000e+00  -1.0829744227047144e-02 -9.6315059610346532e-02 0.0000000000000000e+00  3.4825640963307210e-02 3.7266016121632550e-02 0.0000000000000000e+00  -1.0526259455357870e-01 7.3610529721745421e-02 0.0000000000000000e+00  6.2911064498056779e-02 6.2572839010674494e-02 0.0000000000000000e+00  2.3385100715989950e-02 -2.2998784797140393e-02 0.0000000000000000e+00  -2.2830343653957523e-02 2.3249040402129512e-02 0.0000000000000000e+00  -2.3230742620733876e-02 -2.2843957903920086e-02 0.0000000000000000e+00  -2.2831925817476083e-02 -2.3186101270637988e-02 0.0000000000000000e+00  -2.3257694939406409e-02 2.2911197970169678e-02 0.0000000000000000e+00  -6.0345552047213362e-02 6.0621716460324965e-02 0.0000000000000000e+00  -3.2496301562299601e-02 1.4731292302476851e-01 0.0000000000000000e+00  -7.1860668379532852e-02 1.0227032317454041e-01 0.0000000000000000e+00  -8.0107452573334126e-02 -1.2285135312218623e-01 0.0000000000000000e+00  -2.4063823983422779e-02 -3.3389040004690763e-02 0.0000000000000000e+00  -1.1809648954410990e-02 1.1807937089560789e-02 0.0000000000000000e+00  1.2729885514781486e-02 -1.2712595641762839e-02 0.0000000000000000e+00  1.2747779788175163e-02 1.2758201030978338e-02 0.0000000000000000e+00  -1.1766429792268832e-02 -1.1763221402543564e-02 0.0000000000000000e+00  -2.4291814699337288e-02 3.4331552827586279e-02 0.0000000000000000e+00  3.3172946722609405e-02 -2.3840299149986845e-02 0.0000000000000000e+00  -1.8109479043299531e-01 2.7717139458978780e-02 0.0000000000000000e+00  1.4310236606118615e-01 4.1025282423844928e-02 0.0000000000000000e+00  9.5091933996758998e-02 7.3314289480455416e-02 0.0000000000000000e+00  0.0000000000000000e+00 0.0000000000000000e+00 0.0000000000000000e+00  0.0000000000000000e+00 0.0000000000000000e+00 0.0000000000000000e+00  -1.5335205781131203e-01 1.5672999963491083e-01 0.0000000000000000e+00  -4.1661392979858637e-02 1.1966423191009953e-02 0.0000000000000000e+00  2.2556643802281756e-02 2.3074699975873272e-02 0.0000000000000000e+00  -1.1831348407984379e-02 -4.0706863448913902e-02 0.0000000000000000e+00  -2.2133492095234131e-01 2.3880849442284582e-01 0.0000000000000000e+00  0.0000000000000000e+00 0.0000000000000000e+00 0.0000000000000000e+00  2.4549030466892838e-01 2.0971339249777307e-01 0.0000000000000000e+00  6.7477284320681091e-02 -6.5020605352595351e-02 0.0000000000000000e+00  1.5001010143363952e-01 -6.3591551033353899e-02 0.0000000000000000e+00  1.3338667680534919e-01 -9.9131846689893915e-02 0.0000000000000000e+00  -1.3112033214596353e-01 -1.6082473465427985e-01 0.0000000000000000e+00  1.4777297798322014e-01 -1.5342563152470251e-01 0.0000000000000000e+00  -4.3729363179312419e-02 2.9080998961527230e-02 0.0000000000000000e+00  -2.7728251607526365e-02 -1.6795442752691642e-01 0.0000000000000000e+00  -1.6409215999466248e-01 -2.8794471476110900e-01 0.0000000000000000e+00  -3.8876787863793894e-02 -3.3155395067927099e-02 0.0000000000000000e+00  2.9935282306727581e-02 -3.6084851053066747e-02 0.0000000000000000e+00  3.9774207046110170e-02 -1.0642247143117796e-01 0.0000000000000000e+00  -1.9735916070776671e-01 -8.4231405046225671e-02 0.0000000000000000e+00  -3.1534177773853789e-01 1.0909030314892149e-01 0.0000000000000000e+00  1.5384415648276320e-01 1.4477099066171659e-01 0.0000000000000000e+00  -1.0505090150581112e-01 -4.4153703316721235e-02 0.0000000000000000e+00  -1.4286329457010036e-01 6.4884163404229617e-02 0.0000000000000000e+00  5.8864665277435363e-02 6.8449523432665416e-02 0.0000000000000000e+00  0.0000000000000000e+00 0.0000000000000000e+00 0.0000000000000000e+00  -1.2089475629809471e-01 3.1607425805683509e-01 0.0000000000000000e+00  2.0833446949974518e-02 -2.1714809288270093e-02 0.0000000000000000e+00  2.3651628627932103e-01 -2.2820986852790917e-01 0.0000000000000000e+00  2.2269355372704455e-01 -5.8283912459869192e-02 0.0000000000000000e+00  3.1646703764091128e-01 -1.1530141193783730e-01 0.0000000000000000e+00  4.0075601052214839e-02 2.8760729270642958e-02 0.0000000000000000e+00  -6.5834032699186293e-02 -6.8369674621932608e-02 0.0000000000000000e+00  7.1317337075025911e-02 -9.2337649391748711e-02 0.0000000000000000e+00  -9.1584490934763438e-02 -7.3355155947615075e-02 0.0000000000000000e+00  2.4465591975269933e-02 2.9817986407869715e-02 0.0000000000000000e+00  2.2651599370879582e-02 4.3601387372400803e-02 0.0000000000000000e+00  3.9362977742779609e-02 9.1641422108626608e-02 0.0000000000000000e+00  7.8669428686493598e-02 -6.2996098389096464e-02 0.0000000000000000e+00  1.1823319974849869e-01 3.1438073682326412e-01 0.0000000000000000e+00  -4.0335257627245540e-02 -2.1722194325076778e-02 0.0000000000000000e+00  1.3555694066253951e-01 7.6787746033309415e-02 0.0000000000000000e+00  -3.0551494397622148e-01 -1.3928586812505084e-01 0.0000000000000000e+00  4.2713001970106551e-02 1.8752003037557256e-02 0.0000000000000000e+00  -8.7518737429878926e-04 -4.5727431503934407e-02 0.0000000000000000e+00  4.1237801005479156e-02 -1.9562304890904301e-02 0.0000000000000000e+00  0.0000000000000000e+00 0.0000000000000000e+00 0.0000000000000000e+00  2.1677232257554802e-02 2.0774148312790158e-02 0.0000000000000000e+00  -6.1180297159393188e-02 1.2890104337599223e-01 0.0000000000000000e+00  7.1266132543693517e-02 1.8936507664688018e-01 0.0000000000000000e+00  -2.0526061055450837e-03 1.1277339149368536e-01 0.0000000000000000e+00  -4.4388170024455990e-02 1.0115621139973165e-03 0.0000000000000000e+00  0.0000000000000000e+00 0.0000000000000000e+00 0.0000000000000000e+00  -1.5516277339002290e-02 3.9972269988060728e-02 0.0000000000000000e+00  1.0981373195615278e-01 1.4413310529743736e-01 0.0000000000000000e+00  1.2433817287348438e-01 -3.2571256018593786e-01 0.0000000000000000e+00  0.0000000000000000e+00 0.0000000000000000e+00 0.0000000000000000e+00  -4.4893567028507997e-02 4.3199187388195802e-02 0.0000000000000000e+00  -2.8871914018133493e-02 2.5031943834953295e-02 0.0000000000000000e+00  -7.9790367464342371e-02 7.0772257505165331e-02 0.0000000000000000e+00  -1.0383218930700203e-01 1.4666771396164083e-01 0.0000000000000000e+00  -1.3934991675896571e-01 -1.2097831731323191e-01 0.0000000000000000e+00  -4.2271305882850316e-02 4.3789688940228451e-02 0.0000000000000000e+00  -2.5181071917037022e-02 2.8036307312058448e-02 0.0000000000000000e+00  1.9536665465217352e-02 -4.1222277427125149e-02 0.0000000000000000e+00  0.0000000000000000e+00 0.0000000000000000e+00 0.0000000000000000e+00  0.0000000000000000e+00 0.0000000000000000e+00 0.0000000000000000e+00  0.0000000000000000e+00 0.0000000000000000e+00 0.0000000000000000e+00  0.0000000000000000e+00 0.0000000000000000e+00 0.0000000000000000e+00  0.0000000000000000e+00 0.0000000000000000e+00 0.0000000000000000e+00  0.0000000000000000e+00 0.0000000000000000e+00 0.0000000000000000e+00  0.0000000000000000e+00 0.0000000000000000e+00 0.0000000000000000e+00  0.0000000000000000e+00 0.0000000000000000e+00 0.0000000000000000e+00  0.0000000000000000e+00 0.0000000000000000e+00 0.0000000000000000e+00  0.0000000000000000e+00 0.0000000000000000e+00 0.0000000000000000e+00  0.0000000000000000e+00 0.0000000000000000e+00 0.0000000000000000e+00  0.0000000000000000e+00 0.0000000000000000e+00 0.0000000000000000e+00  0.0000000000000000e+00 0.0000000000000000e+00 0.0000000000000000e+00  0.0000000000000000e+00 0.0000000000000000e+00 0.0000000000000000e+00  0.0000000000000000e+00 0.0000000000000000e+00 0.0000000000000000e+00  0.0000000000000000e+00 0.0000000000000000e+00 0.0000000000000000e+00  0.0000000000000000e+00 0.0000000000000000e+00 0.0000000000000000e+00  0.0000000000000000e+00 0.0000000000000000e+00 0.0000000000000000e+00  0.0000000000000000e+00 0.0000000000000000e+00 0.0000000000000000e+00  0.0000000000000000e+00 0.0000000000000000e+00 0.0000000000000000e+00  0.0000000000000000e+00 0.0000000000000000e+00 0.0000000000000000e+00  0.0000000000000000e+00 0.0000000000000000e+00 0.0000000000000000e+00  0.0000000000000000e+00 0.0000000000000000e+00 0.0000000000000000e+00  0.0000000000000000e+00 0.0000000000000000e+00 0.0000000000000000e+00  0.0000000000000000e+00 0.0000000000000000e+00 0.0000000000000000e+00  7.1026235988684350e-02 -1.8401595514362384e-01 0.0000000000000000e+00  2.8642638240071233e-01 1.1571437965677096e-01 0.0000000000000000e+00  -1.3386782157942001e-01 1.0838080709324091e-01 0.0000000000000000e+00  -5.2540746494923289e-02 -1.3079594249634777e-01 0.0000000000000000e+00  -4.1921671740092536e-02 -4.3276144331665864e-02 0.0000000000000000e+00  -4.6162940936594579e-02 -6.7569087314992768e-02 0.0000000000000000e+00  -2.4971462248941947e-02 -2.7711783181091628e-02 0.0000000000000000e+00  1.1406113267281776e-01 1.0042235137059251e-02 0.0000000000000000e+00  -4.6349106074101067e-02 6.8667401863630767e-02 0.0000000000000000e+00  2.0110605281191221e-01 2.6743756882428190e-02 0.0000000000000000e+00  -7.1115295654415323e-02 8.0645345628536119e-02 0.0000000000000000e+00  1.0133664668517359e-01 -3.6797513107398226e-02 0.0000000000000000e+00  -1.7578143107403802e-02 -1.8524960231803948e-02 0.0000000000000000e+00  -1.9254226869427106e-02 -1.8326484505545682e-02 0.0000000000000000e+00  -1.8558374968562951e-02 1.7618586670490068e-02 0.0000000000000000e+00  -1.8347446473021365e-02 1.9270645788533811e-02 0.0000000000000000e+00  7.6385469669435754e-02 1.0168665114972109e-01 0.0000000000000000e+00  -7.0725794381160265e-02 -8.7284022342474635e-02 0.0000000000000000e+00  1.8407389169215176e-02 -1.7418876212081550e-02 0.0000000000000000e+00  2.1196962299479812e-02 -2.0790873594240620e-02 0.0000000000000000e+00  -4.2546783642136599e-02 2.1375176313346370e-01 0.0000000000000000e+00  -1.2370443907919004e-01 3.1350352769535579e-02 0.0000000000000000e+00  4.2080682748365787e-02 4.0861818031027203e-02 0.0000000000000000e+00  2.5044888299178825e-02 2.3342743968130214e-02 0.0000000000000000e+00  -1.7923971591953865e-02 -3.4512745917939923e-02 0.0000000000000000e+00  1.2440973582414983e-01 1.0335787592847297e-01 0.0000000000000000e+00  6.9531635948717946e-02 4.9721086100371015e-02 0.0000000000000000e+00  -2.4212032554536833e-01 5.6416393946633982e-02 0.0000000000000000e+00  1.6306720958547769e-02 1.7296957890912880e-02 0.0000000000000000e+00  -7.3463216534103454e-02 4.9948151992703360e-02 0.0000000000000000e+00  4.1212537450944338e-02 -1.2353845191399953e-03 0.0000000000000000e+00  1.0776930929880381e-01 -1.3810117214980584e-02 0.0000000000000000e+00  -2.4548122806133035e-01 -2.2868916815209717e-01 0.0000000000000000e+00  2.3664959080878178e-03 3.8524119703996051e-02 0.0000000000000000e+00  2.3831890511167818e-02 1.0696377553925827e-01 0.0000000000000000e+00  3.8818051856747658e-02 -3.7941389807451542e-02 0.0000000000000000e+00  5.7262693978