<?xml version="1.0"?>
<VTKFile type="UnstructuredGrid"  version="0.1"  >
<UnstructuredGrid>
<Piece  NumberOfPoints="1109" NumberOfCells="1972">
<Points>
<DataArray  type="Float64"  NumberOfComponents="3"  format="ascii">3.875315854434405e-19 1 0  4.423323237301618e-19 4.309510419304032e-19 0  1 5.00227986344181e-19 0  1 1 0  0.879811255702682 0.5463129929662173 0  0.8831507420758935 0.4999615358724253 0  0.8798656979250242 0.4537190520877079 0  0.8702276965858508 0.4082125793703741 0  0.8545235207738825 0.3640863023818925 0  0.8329214685699866 0.3217023432721837 0  0.8058234829066053 0.2813374072529969 0  0.7738692562540297 0.2437070787450793 0  0.737851927654426 0.2095929150274339 0  0.6987527400604822 0.1799710009191364 0  0.6573114611204109 0.1555561821433765 0  0.6140143504477094 0.1368661976420973 0  0.5691135117419228 0.1241481123349265 0  0.523151629338984 0.117732564950302 0  0.4768290082064813 0.1177075167697297 0  0.4308586897718132 0.1241452432197936 0  0.38597274673823 0.1368636222219481 0  0.3426563679442349 0.1555895436647686 0  0.3012463636565089 0.1799633401928743 0  0.262160849048918 0.2095763718823632 0  0.2261266802591537 0.2437016052377706 0  0.1941433277648099 0.2813680751720491 0  0.1670948437130197 0.3217240868682008 0  0.1455069272287926 0.3641329289266995 0  0.129747391828107 0.4081939429974824 0  0.1201566854563917 0.4537248714274172 0  0.1168728380808158 0.4999401722542368 0  0.1201040339278555 0.5462660300406468 0  0.1297591776792615 0.5918048380247479 0  0.1454724789464768 0.6358879173147498 0  0.1670681274266103 0.6783077111312844 0  0.1941743637366748 0.7186682798296441 0  0.2260701154073358 0.7563393142139705 0  0.2620979619514766 0.7904203729811758 0  0.3012735724683974 0.8200279581990317 0  0.3426852596024552 0.8444481333935238 0  0.3859949657968315 0.8631280834159765 0  0.4308629186856462 0.8758082125852724 0  0.4768108676190934 0.8822726143744648 0  0.5231315166803625 0.8822928237752238 0  0.5691392273426247 0.8758475795832145 0  0.6140545982403165 0.8631191856075756 0  0.6573434585535515 0.8444330608709427 0  0.6987301717246979 0.8200846441774919 0  0.7378930476275335 0.7904500951363215 0  0.7738599572279095 0.7563358625829257 0  0.8058794092176157 0.7186709873587018 0  0.8329447561308359 0.6782958374435042 0  0.8545301721499724 0.6359109614374376 0  0.8702468197757227 0.591784665254506 0  0.5 1 0  1.423956132009424e-18 0.5 0  1 0.5 0  0.5 2.694943907925083e-18 0  0.75 1 0  0.25 1 0  1.151769414134062e-18 0.75 0  8.795566685572678e-19 0.25 0  1 0.25 0  1 0.75 0  0.75 5.416488946370145e-19 0  0.25 6.528891754457027e-19 0  0.625 1 0  0.375 1 0  1.852755012449223e-18 0.625 0  7.263474784135943e-19 0.375 0  1 0.375 0  1 0.625 0  0.625 1.924781406755027e-18 0  0.375 9.004652406722781e-19 0  0.125 9.718751620578949e-19 0  0.875 1.472620211379485e-18 0  1 0.125 0  5.008674096706843e-19 0.875 0  0.125 1 0  0.875 1 0  6.607595564533887e-19 0.125 0  1 0.875 0  0.1527047921506337 0.1295262900138464 0  0.8472920952797838 0.8704393199660649 0  0.8473024197740583 0.1295175656589942 0  0.1353715248564361 0.8646108526979452 0  0.9199032274332634 0.194055047752377 0  0.1006089249553693 0.2166058292441653 0  0.8993884419547122 0.7834253208078796 0  0.09854449132708543 0.7518474415269406 0  0.226694732136401 0.8994788723386091 0  0.07417567741318501 0.07417786314052272 0  1 0.0625 0  0.9375 1.222549160102286e-18 0  0.0625 1 0  9.503875657150114e-19 0.9375 0  0.9258061262505961 0.9258263774951375 0  0.72254101064628 0.089436205900113 0  0.2774761454541464 0.08945088273588539 0  0.7613538006376703 0.9020291824798158 0  1 0.6875 0  1 0.3125 0  0.07571540671081207 0.3033143832740837 0  1.747872579107732e-18 0.6875 0  0.1875 6.290286849831285e-19 0  0.8125 8.454429330115508e-19 0  0.9128120578409138 0.2759232839801856 0  0.3125 1 0  0.6875 1 0  0.9183140883490036 0.081684836544012 0  0.917843567950191 0.7077764753853366 0  1.224178059616921e-18 0.8125 0  0.07788744531006732 0.9221087303242683 0  0.06800094933652441 0.8385378971336995 0  0.8431312293297262 0.2044302986084151 0  0.2985809177176834 0.9189674326997477 0  0.6646528150777953 0.923382190656194 0  0.9171963863458525 0.8539752889743871 0  0.08281715703134036 0.1459701341149564 0  0.8125 1 0  0.06841768623676021 0.6507918724863647 0  0.928198024143887 0.3395224691000605 0  0.1965017977396279 0.8239083798263518 0  0.6569957890549348 0.06795010563129177 0  0.3125 7.825568865661985e-19 0  0.3491626516280882 0.06798513051493049 0  0.2264751840686661 0.1383618437436181 0  0.7959420343132018 0.07814557920449354 0  0.1598260007351804 0.9319914875190057 0  0.5625 1 0  0.4375 2.028498359928104e-18 0  0.4375 1 0  0.5625 1.296070114438109e-18 0  0.1904399008125669 0.0729051428130752 0  0.9285009965123129 0.6365602116673529 0  0.7799256776846174 0.148682596652679 0  0.8231560297984731 0.932333156636268 0  1 0.4375 0  1.590895642279014e-18 0.4375 0  1 0.5625 0  2.279210736294031e-18 0.5625 0  2.877589624565944e-18 0.3125 0  1 0.8125 0  0.0625 7.447034433686288e-19 0  3.935406292955725e-19 0.0625 0  5.439739201126634e-19 0.1875 0  1 0.1875 0  1 0.9375 0  0.9375 1 0  0.6875 5.596098045577089e-19 0  0.1875 1 0  0.7998561262155748 0.820081744221741 0  0.1671856102818971 0.1987889408819934 0  0.8585240192076206 0.0646226708624433 0  0.1574491609449491 0.7761486850077819 0  0.3590670424634293 0.9319636330118448 0  0.9367748309741236 0.418384855329011 0  0.0632457919554628 0.5816511184855946 0  0.05976955673052615 0.409587389739258 0  0.590534061402911 0.05808494853487974 0  0.607010236589425 0.9327393959745167 0  0.4058606909908147 0.0601181684280103 0  0.0582465130019548 0.7094102208945208 0  0.9437495067815297 0.5301009649354285 0  0.05624297031904646 0.4698793640850875 0  0.1257276322206589 0.2726985930913279 0  0.1324513504390472 0.07152257199557449 0  0.9422019507091428 0.5842806592854954 0  0.7061331233533844 0.8818397229347162 0  0.7232064165241583 0.9427196581828245 0  0.05699106297779786 0.3545611105089148 0  0.9385366194573861 0.1364140646518467 0  0.41397099395765 0.9412461712228496 0  0.538426756579843 0.05662790775720773 0  0.4698026047732988 0.0529299002171127 0  0.4664826156420466 0.9455590132390536 0  0.5302092812338376 0.9470542239026165 0  0.8662565963507491 0.7327407644479043 0  0.8392664653463753 0.7808033296522098 0  0.04579889448588692 0.777074691279443 0  0.7484998076761005 0.8461695419608257 0  0.2437144888241853 0.8447545722882629 0  0.04541010146180313 0.2228875305782694 0  0.9444632798748709 0.7561823018824515 0  0.9420695951232392 0.4731498910641466 0  0.05795120946374658 0.5268574735181684 0  0.8729763203309915 0.9196919764165548 0  0.8608107153930372 0.2552896686287178 0  0.1098419197122919 0.6818869439331318 0  0.7772354003399651 0.9562324464232062 0  0.1078491048309142 0.800920468993811 0  0.1809833679060466 0.8830109868480535 0  0.2228235348760266 0.9554209751668624 0  0.871855833614455 0.8242717541717997 0  0.8890769406173512 0.1560592037283632 0  0.949347904825236 0.2342941394910567 0  0.9460403383965041 0.8134318118881045 0  0.2359866564695854 0.05188007427833646 0  0.2827739204265843 0.8711384535681943 0  0.7976491674003244 0.8709198405331198 0  0.7151317834341856 0.03909355146348265 0  0.2848741170340006 0.03909098233395265 0  0.7601162278247302 0.0488214265986731 0  0.8998066074465664 0.0389130402504235 0  0.03670649183355566 0.1592864722191725 0  0.1274993522727026 0.1678731864503541 0  0.9537576797046777 0.2982390006675674 0  0.1358412464719888 0.7176195373736328 0  0.9650469048361024 0.09600016362672346 0  0.2147928121364285 0.1954670536466422 0  0.04863964368552118 0.8845672975157404 0  0.09599570362503559 0.9648728110468172 0  0.1591002717148198 0.03486749534342581 0  0.882743332429583 0.3238906109246675 0  0.784727451283646 0.1959890539912668 0  0.09926832941540512 0.03675688513073625 0  0.03417935309614027 0.09592912189844084 0  0.8978858733266956 0.9610280602146323 0  0.9658433864041289 0.9040693005735895 0  0.1072189684986399 0.1086625895115172 0  0.9598594267819172 0.9598633399394155 0  3.716822090603796e-19 0.03125 0  0.03125 3.233275724389752e-19 0  0.042978156915936 0.9570252728906031 0  0.9542201285414652 0.04578005469577621 0  0.8952688309354054 0.6661345962285548 0  0.1469762322007538 0.820391830437337 0  0.1445802128137841 0.2348918941011996 0  0.07777363982982298 0.2592753478322018 0  0.28125 1 0  0.2660894201688437 0.9541811502348064 0  0.09178589923367902 0.8727737744838642 0  0.6792477039271237 0.1086296603477574 0  0.7333405058522036 0.1387957565044846 0  0.3224866574650441 0.106390770105261 0  0.2722200997073048 0.1377763738067838 0  0.9135584294561709 0.382063167991104 0  0.8183408388161845 0.1646072809437557 0  1.639710097862908e-18 0.28125 0  0.1213018976114795 0.3130531803404972 0  0.6422885394831371 0.9595121383198968 0  0.1846731881637825 0.1612703983849486 0  0.9034932220355683 0.2353252180606066 0  0.9639350380582509 0.7197831158487906 0  0.9485100289165668 0.6773994552154488 0  0.3501317919742093 0.8882018340301688 0  0.2284212011838096 0.09462372746519097 0  0.04255408159589615 0.04254404113666291 0  0.5660058451219608 0.9250137498659498 0  0.1189557294805841 0.9276432518080738 0  0.1010226240480105 0.3736646947270509 0  0.9600722845769931 0.1715939782533433 0  0.8881342903198042 0.1137427951350236 0  0.7598312409340858 0.1023801626817355 0  0.9585521562427224 0.8642344743326725 0  0.84375 1.443099940249412e-18 0  0.8241002007117079 0.0419246015331272 0  0.4987553171352354 0.919995373507895 0  0.4999793447450029 0.08156733011340422 0  0.9010364706573828 0.8908909707621124 0  0.8167824025978315 0.2400542828744151 0  0.06615133791105167 0.1902424593936791 0  0.84375 1 0  0.8569873143473525 0.9597609192251203 0  0.08795265822940458 0.6131921597483105 0  0.04397766912421209 0.6212977552348358 0  0.392463137135194 0.9064479368151066 0  0.59375 1 0  0.04172315445370905 0.2764428998865692 0  1 0.34375 0  0.956836311788627 0.3670612023124674 0  0.1854744677905698 0.2360752956721448 0  0.30294285
[...]
<CellData  Scalars="dens"> 
<DataArray  type="Float64"  Name="dens"  format="ascii">9.1411345167518820e-01   9.1624899191090614e-01   8.9760773352423051e-01   9.0494861885339561e-01   9.0126443072227003e-01   8.8221391620483336e-01   9.0382421555606851e-01   9.0485425066720693e-01   9.0016633488271192e-01   8.9477167172407746e-01   9.0024212838670681e-01   9.0706441631464996e-01   8.9451505107337859e-01   9.1675489228853080e-01   9.0363174599599116e-01   9.0106087039944005e-01   9.0611817391788396e-01   9.0323567291051143e-01   8.8461351091729112e-01   9.1404463552626602e-01   9.0453367663964190e-01   9.1559384171557168e-01   9.0655821679773041e-01   9.0212124990983555e-01   9.0359555250878854e-01   8.9783297710598531e-01   9.1392973599852967e-01   9.1571611092904726e-01   9.0264218644706862e-01   9.2179277313670804e-01   9.0878116334250170e-01   8.9050053456119049e-01   8.9977904247329443e-01   9.0091693558220809e-01   8.9856581650645828e-01   9.3625325644827651e-01   9.1001797477038437e-01   9.0402750348564809e-01   9.4301360203612994e-01   9.2332505862534908e-01   9.1880174721246932e-01   9.4238474027752561e-01   9.1061073595183162e-01   9.0754087390131866e-01   9.0949702945827704e-01   9.0467168808750709e-01   9.0680148309672526e-01   8.9631306189273485e-01   9.1781534624641870e-01   9.1323874236737790e-01   9.0742156016214892e-01   9.0191592549360922e-01   9.0840885065384458e-01   9.1827900887091873e-01   9.1154519639104037e-01   9.0160535658112584e-01   9.0498023989753307e-01   9.0277493791015839e-01   9.0831767421044296e-01   9.4347828737420625e-01   9.4219351524903328e-01   9.2194952601103397e-01   9.0822093532122861e-01   9.2595558649701160e-01   9.4031906091822826e-01   9.0464123004160391e-01   9.0733492244067915e-01   9.1660018909153851e-01   9.0951400495078061e-01   9.0471051941251779e-01   9.0220768197618240e-01   9.0253783744289284e-01   9.0881841211901815e-01   9.0252157234913843e-01   9.0295906854980668e-01   8.9958832259736110e-01   9.0324720345506204e-01   9.0245301687424961e-01   9.0369447208088050e-01   9.1783497816518356e-01   9.0348380202258816e-01   9.0393045994188559e-01   8.9664204304548734e-01   9.0434876697799726e-01   9.0750041758723876e-01   9.1806804488993410e-01   9.2096162907277235e-01   9.0097641421562524e-01   9.1824603846407393e-01   9.0901944774090238e-01   9.5262568237075662e-01   9.1983547563752155e-01   9.1926636154108177e-01   9.0658652363002723e-01   9.1519296898379854e-01   9.0068970095956624e-01   9.0202125534591193e-01   9.0135124527804922e-01   9.0655158482355613e-01   9.0886912824004629e-01   9.2136728005757151e-01   9.1185478195684566e-01   9.1464315308114896e-01   9.1873496395662357e-01   9.2868892832588112e-01   9.0756048980903992e-01   9.0571739314492294e-01   9.0644930343787289e-01   8.9781332311481821e-01   9.0151269524928934e-01   9.0404359707826887e-01   9.1923363631306243e-01   9.0605011589195417e-01   9.0061571408361607e-01   9.0906646373204980e-01   9.0937349916101040e-01   9.2863932197738641e-01   9.2390546983829425e-01   8.9061739522868222e-01   8.8702104612953969e-01   8.9972757914945101e-01   8.9128498327161454e-01   8.9023490881870915e-01   9.0608303902607090e-01   9.1076827646378888e-01   8.9524220983355274e-01   9.0852086036781088e-01   9.0842808605129766e-01   9.0904366409748183e-01   8.8579139884418512e-01   8.9629122238583347e-01   9.1963325894021031e-01   8.8788014206514243e-01   8.9471151936815629e-01   9.2285359845259451e-01   9.0382976809638416e-01   9.3955190730113580e-01   9.1970959581136613e-01   9.1318292671401802e-01   9.2023948434436587e-01   9.2546304239962851e-01   8.9997629883380803e-01   8.7779506249903638e-01   9.0792508448066522e-01   8.9998764275407317e-01   9.0303253509309389e-01   9.0778864835536133e-01   9.2902230512797856e-01   9.1221408621575906e-01   9.0155755655573599e-01   9.0339904480831401e-01   8.8522103996767920e-01   8.9196070194416566e-01   8.8207097886114494e-01   8.9759422046779769e-01   8.8947761440910622e-01   8.9239240180721224e-01   9.0670978639113942e-01   8.9471953071896215e-01   8.9307392664502772e-01   8.8771760977209324e-01   8.7161070684147979e-01   8.9675690713520573e-01   8.8441037337686590e-01   8.8164389372548990e-01   9.0361710383930627e-01   9.0338467108716503e-01   9.1599939362872729e-01   8.8140367925346097e-01   8.8709888468271092e-01   9.0487894127224233e-01   8.9776107176295927e-01   9.0169972814187682e-01   9.0248243744434986e-01   9.0009271763328480e-01   9.3032520596178303e-01   9.1802220423437042e-01   8.9164522916463140e-01   8.9262619890914896e-01   8.9704437634205592e-01   8.9976875439037785e-01   8.9345274648259210e-01   8.9619970270926685e-01   9.0764704966550536e-01   9.0392239790986728e-01   9.0929210117782533e-01   9.0840755783763227e-01   9.1267008185737619e-01   9.0308488640146423e-01   9.0273779778781926e-01   9.0337809374702760e-01   9.0623968261626309e-01   9.0465351103334024e-01   8.7664174227568115e-01   8.9673781044103285e-01   8.8569501673918705e-01   9.0141265158425099e-01   9.1439348468560022e-01   9.2341600739071095e-01   9.1090085712308300e-01   9.0374196976269616e-01   9.0486561342366101e-01   9.1903640309258494e-01   9.0402185048676276e-01   9.0540846965225596e-01   9.0816801469849406e-01   9.0989601011755761e-01   9.0722981709871120e-01   9.1631362910131431e-01   9.1681464129433965e-01   9.0519219184490696e-01   9.0970012659829935e-01   9.1716864000343290e-01   9.1449279937841044e-01   9.1145812610968391e-01   9.1199390392565449e-01   9.0300037277556644e-01   9.0967427896023967e-01   9.0075206593441581e-01   9.0855757657658187e-01   9.0718197263725819e-01   9.0554235247788384e-01   9.0726407542319210e-01   9.0996345935299150e-01   9.0780110169940287e-01   9.1680245850954634e-01   9.2971122769553105e-01   9.2016613266195313e-01   9.1259175186608843e-01   9.1814379224430753e-01   8.9976657094733248e-01   9.1397773676811622e-01   9.0569170484754979e-01   9.2188935217223544e-01   9.3449037513428412e-01   9.0292627465693531e-01   9.0058999978912591e-01   9.4355991599710620e-01   9.3973176354920340e-01   9.1897193996762538e-01   9.2816526990059167e-01   9.0618240659579707e-01   9.0302071862418620e-01   8.9750425664637634e-01   9.0505845224209358e-01   9.2811142631556220e-01   9.2633059340648094e-01   9.2504817910206805e-01   9.3236561004527185e-01   9.5814265786682074e-01   9.2568731108619673e-01   9.2432434663150076e-01   9.2971982214724447e-01   9.3345218830454213e-01   9.4612257680195322e-01   9.5710034919461640e-01   9.4533445777982450e-01   9.4294400423776825e-01   9.5348038504194765e-01   9.0263281599560607e-01   9.0394881114830772e-01   9.0749586679287220e-01   9.0255456096583908e-01   9.0919506757411772e-01   9.0142274274200285e-01   8.9924553577534594e-01   9.0691148769170793e-01   8.9656903951938849e-01   9.0532304201488589e-01   9.0995590654307590e-01   9.1527005225990432e-01   9.0053418751409808e-01   9.0959179707652937e-01   9.0385496861287140e-01   9.0508845464403920e-01   9.0201003259592560e-01   9.0686467400475479e-01   9.1631022723913980e-01   9.0088742727910298e-01   9.0841050396021306e-01   9.0795882920283022e-01   8.8889540448702342e-01   8.9753384304549866e-01   9.1000091200969113e-01   9.0551375463761807e-01   9.1137544481015154e-01   9.0308313438250676e-01   9.0413949438965491e-01   9.0621497160913045e-01   8.9928903624284384e-01   8.9314235708362677e-01   9.0769429446248662e-01   9.0766945326056869e-01   9.1316710456539718e-01   9.4684616390041421e-01   9.5265347970031256e-01   9.0637583649731213e-01   9.1475164523996644e-01   9.1962224757203292e-01   9.0751610639980018e-01   9.1536354456858593e-01   9.1152477187498104e-01   9.1675911865050652e-01   9.2673908443086850e-01   9.0653037106963252e-01   9.0851729335512810e-01   9.3632132042103566e-01   9.2535458583254138e-01   9.1451291202049945e-01   9.2043956496983925e-01   9.1677427759609353e-01   9.1513235660782177e-01   9.0011761922589206e-01   8.9413468182098532e-01   8.9435257490102271e-01   9.2107503394372281e-01   9.3155140563747341e-01   9.0661526753679034e-01   9.0920938810144225e-01   9.1629284348962470e-01   9.2300194865286478e-01   9.3680630433531431e-01   9.1521824745560132e-01   9.2012331291976757e-01   9.0598803221856350e-01   8.9421086641836212e-01   9.0257013026033406e-01   9.0878483969429602e-01   8.8570509375308693e-01   8.8740810270656179e-01   9.0510717423608367e-01   9.0680472693729530e-01   9.0504443273335244e-01   8.9026744421733350e-01   8.9258791112112068e-01   8.9424376279571616e-01   8.9862229637524416e-01   9.0389176533548998e-01   8.9252473849995018e-01   8.9677008181196116e-01   9.0623563576832411e-01   9.0417541050224448e-01   8.9506913319551573e-01   8.9713751896137428e-01   9.2002777228342791e-01   9.0724294131926875e-01   9.0299716317073864e-01   9.1074158978091380e-01   8.9269935100742659e-01   9.0260342639499458e-01   9.0004576266336245e-01   9.0420789214844777e-01   8.9282925756090536e-01   8.9329476052020096e-01   8.8498386579961419e-01   9.0549048103524366e-01   9.0397608780130778e-01   8.9825993009599814e-01   8.9990170375968703e-01   8.9762442726615810e-01   9.0699054728220574e-01   9.0782397269091086e-01   9.1179032434821905e-01   9.0415639102725043e-01   9.0816769591750823e-01   9.0834371218643373e-01   9.0089486352941328e-01   9.0387853356184289e-01   9.0305061235030770e-01   9.1319783266855292e-01   9.0940271808080919e-01   9.2413033851129767e-01   9.1401820430534086e-01   9.0071846491291818e-01   9.0133804832135223e-01   9.0197171377385632e-01   9.0158883164241865e-01   9.3158628225588469e-01   9.0320019907839022e-01   9.1590022056743159e-01   9.2419884575497835e-01   9.2417239238941007e-01   9.3720632916037094e-01   9.1299516275448001e-01   9.1178875563489736e-01   9.1129562771820349e-01   9.0151150544380465e-01   8.8092040650285552e-01   8.6722508309926072e-01   9.0260330245349718e-01   9.0712934672461953e-01   9.0907257402642250e-01   8.9143102622679227e-01   8.8867338333910717e-01   8.8204087170585699e-01   9.2198142395935179e-01   9.1216937299639167e-01   9.1621358779080264e-01   9.0825829498575872e-01   9.1168501816565239e-01   9.0539242027550393e-01   9.1311134676837680e-01   9.2026436085541841e-01   9.1828483782122505e-01   9.0153048626717336e-01   9.0376998992102320e-01   9.0600044229650956e-01   9.0697747154679531e-01   8.8841093776987623e-01   8.8035443169256333e-01   8.6678441190159405e-01   8.6693318267836039e-01   8.9991875630094609e-01   8.9946786105875709e-01   9.1533016677215551e-01   9.0228945635091062e-01   8.9409444704581753e-01   8.8370369824307449e-01   9.0487263194080814e-01   8.9882810946834657e-01   8.9522221203341990e-01   8.9634115795592217e-01   8.9847437651322604e-01   9.1164070622394422e-01   8.7581168942952814e-01   9.1803078227642110e-01   9.0410161113238674e-01   9.0076069617010912e-01   9.0138822912717453e-01   9.0013698297376876e-01   9.0350093191762137e-01   8.9956638163924107e-01   8.9668509785399686e-01   9.0081597211365627e-01   8.9064415029347455e-01   8.9480133810033180e-01   8.7817682033869748e-01   9.1056978732956073e-01   9.0714786973545136e-01   9.0341941149690885e-01   9.0125108462540948e-01   9.0854608951643345e-01   9.1708678936371257e-01   9.1542122322016473e-01   9.0719957991130507e-01   8.6754227191579103e-01   9.0658714578253330e-01   9.0120076036360597e-01   8.9906767041461821e-01   9.0313736731971772e-01   9.0022328764044202e-01   9.2150890247069739e-01   9.2252436151649375e-01   8.9861475968486593e-01   9.0063559409214800e-01   8.9862478965579251e-01   9.0791128829295664e-01   9.0754196863275394e-01   9.0921203418343399e-01   9.0714832179766292e-01   9.2134756813986951e-01   9.1816497158097654e-01   9.1586159664951283e-01   9.1742214636364616e-01   9.0828040024006074e-01   8.9873895392830139e-01   9.0299405612919070e-01   9.0050404555946550e-01   9.0446836697257760e-01   9.0125874508445758e-01   9.0294573283720991e-01   8.9878711350919438e-01   8.9267528153501963e-01   8.9644168655517897e-01   9.0922847340789981e-01   9.0990580494848705e-01   9.1211415442280253e-01   9.1018254274650989e-01   8.8290740431021220e-01   8.8531517542183069e-01   8.7254879791767026e-01   9.2135776045240758e-01   9.0511464267378394e-01   9.1893874721042257e-01   8.9721664519904931e-01   8.9289005468051408e-01   9.1057842273675738e-01   9.0830628049459383e-01   9.2185243480892831e-01   9.1794991985432250e-01   9.2136571634879871e-01   9.1411963356091053e-01   8.9834426045150617e-01   8.9636535038153264e-01   9.0453825444608993e-01   8.8949863162241039e-01   9.0453074127930844e-01   9.0931544857196667e-01   9.0984696117775810e-01   9.0764047952900817e-01   9.0462872008102457e-01   8.9721748590950301e-01   9.0500944710945064e-01   9.0155733302060403e-01   9.0496723028899628e-01   9.0487842910931093e-01   8.9991918848262042e-01   8.7766776654105483e-01   8.9211914217182331e-01   8.9549522694168349e-01   8.8379715924267765e-01   9.0126018838389577e-01   9.1129716848974673e-01   9.3518611485256731e-01   9.2713381201010592e-01   9.1746024908978163e-01   9.1009731817521522e-01   9.1163314359304704e-01   9.0596767864469807e-01   8.9740369180780666e-01   9.0368609227069630e-01   9.0672365588664228e-01   9.0195398717524955e-01   9.0226659264491149e-01   8.8181758441807934e-01   8.6662664875817697e-01   9.0859046522551645e-01   9.0596676967957934e-01   8.9560831532273744e-01   9.0553894633955212e-01   8.9049258851361390e-01   8.9399412699484027e-01   9.0901537411533451e-01   9.0891023861946274e-01   9.0590708377981177e-01   9.0848079259354997e-01   9.1033364623454682e-01   9.2658219265204533e-01   9.2875782142665153e-01   9.1112933171702826e-01   9.1133290071681483e-01   9.1865222112467526e-01   8.9504691750943666e-01   8.9016134952021642e-01   9.3492537712784396e-01   9.3745911362242673e-01   9.3935016555768258e-01   9.5208216256736655e-01   9.5231829170743199e-01   9.5717397207215338e-01   9.3737968375063840e-01   9.3656757270096724e-01   9.2796658182252068e-01   9.4520610613297773e-01   9.1878693123182964e-01   9.3090049427452737e-01   9.3908304697695000e-01   9.2855920804228265e-01   9.2887713459627219e-01   9.4066902049484169e-01   9.3936895723042535e-01   9.3753909348515985e-01   8.9647477197294245e-01   8.8966841967438282e-01   9.0138057616799572e-01   9.0705530000786017e-01   9.1259628105730772e-01   9.0180052954859935e-01   9.2167540599637643e-01   9.1604817762450297e-01   8.8898428238231197e-01   8.8130212976774636e-01   9.3346171800580457e-01   9.3702770434277916e-01   9.2303439930143261e-01   9.1473362319187357e-01   9.1151717271340471e-01   9.0450179801614639e-01   9.0758617069527547e-01   9.1746295668783862e-01   8.7557232378380778e-01   8.8543880053160984e-01   8.8194805320507408e-01   8.8659988173661985e-01   8.7218177351303361e-01   8.6735344556177441e-01   8.7567968126673479e-01   8.8803998195629130e-01   8.8902693062868476e-01   8.8129591880873603e-01   8.9111379688850600e-01   8.8245001420433844e-01   8.7264027292882196e-01   8.8354576545405927e-01   8.8708507075811094e-01   8.8360847702589174e-01   9.3436057221488455e-01   9.4762777484231453e-01   9.3733313198989165e-01   9.4417939055329869e-01   9.5383178924291034e-01   9.4617611385141920e-01   9.7219110850258450e-01   9.7216440423793471e-01   9.5824664293754058e-01   9.5266289833072981e-01   9.0644047954558915e-01   8.9080110759952380e-01   9.2067614978709811e-01   9.2884795966344169e-01   9.1122814240258199e-01   9.1675854544878477e-01   8.9969167912554493e-01   9.2634806802743119e-01   9.2831028936317161e-01   9.0431792015628765e-01   9.1709436945569478e-01   9.1017942357919612e-01   9.0629890597783480e-01   9.2342609620518235e-01   9.1708622255631378e-01   9.1601328927799319e-01   9.1457741106760371e-01   9.3453969441906015e-01   9.2601049904869059e-01   8.7315619375225428e-01   8.8448331558988580e-01   8.9252126842282298e-01   8.8728959745459335e-01   8.8135107945328717e-01   8.9060398228117732e-01   9.0573851688497653e-01   9.0577234753480163e-01   9.2774932694919010e-01   9.2417009153791552e-01   9.2100920583831170e-01   9.1992560757875630e-01   8.9864579674038336e-01   9.2070612596302848e-01   8.9925271260195205e-01   8.8950056773230601e-01   8.8303910166499522e-01   9.1409476575789350e-01   8.9401730385972245e-01   8.9650796731715610e-01   8.6637982718628348e-01   8.7972392986306913e-01   9.0279769589079584e-01   8.6614023886754621e-01   8.7985374355943957e-01   9.0694072531425174e-01   9.0807472164946812e-01   9.0883589792474251e-01   9.1046604182138358e-01   9.0733474494084643e-01   9.1382164570793023e-01   9.0867836273238689e-01   9.0275670170254996e-01   9.0622300455798022e-01   8.8550434334691075e-01   9.1708398572595706e-01   9.1754288158214026e-01   9.1282415725362098e-01   8.9956754866730737e-01   8.8692362412362080e-01   8.9841994810583137e-01   9.1864759019244957e-01   9.0421783377565157e-01   9.0725520474279175e-01   8.8652222648017354e-01   8.9922494742496861e-01   9.1720008011255139e-01   9.2395189456834048e-01   9.1779920888455835e-01   9.0606212543367315e-01   9.0105704025820665e-01   9.1596166739410345e-01   9.0440367344684180e-01   9.1497197588013590e-01   8.9936883891601449e-01   8.9547428727522738e-01   9.1844636575102889e-01   9.1003072086975667e-01   9.1065288683937995e-01   9.1409679776730490e-01   9.0147825915121738e-01   9.0782980094413757e-01   9.0034178927351605e-01   8.9896967431401309e-01   9.0264263983980819e-01   9.2066882788765680e-01   8.9198276374481522e-01   8.9104905630944564e-01   9.0570406221298272e-01   9.0371212495443343e-01   9.0591847787732782e-01   9.0254289294436985e-01   9.0497287969745377e-01   9.0659832929918949e-01   9.0149811111660250e-01   9.2770194405116990e-01   9.1550533481232665e-01   9.3672521236090767e-01   9.2697570938083784e-01   9.2856147897410746e-01   9.2962863003533891e-01   8.8969628219459496e-01   8.9970630480524394e-01   8.7508348597407626e-01   8.8289914763548727e-01   9.0679246785742995e-01   9.0402611369856689e-01   9.0898682789179186e-01   9.0339220862400915e-01   9.0736975459507430e-01   8.7338194807646630e-01   8.8634035038389847e-01   9.0513484259428578e-01   9.1550197163478242e-01   9.0940159761362394e-01   9.1886473074294706e-01   8.9214134087744279e-01   8.8793100995662144e-01   9.0176351217814565e-01   9.0656507419121879e-01   9.3835044658950628e-01   9.2326826320467914e-01   9.0121554474171139e-01   9.0042082604442797e-01   8.9915659187617314e-01   9.0162049157391988e-01   9.2163913156356703e-01   9.1487008079973009e-01   9.0719042431700880e-01   8.9861231194167523e-01   9.0979773620713322e-01   9.0721811806653974e-01   9.0310616188693627e-01   9.0475064304103492e-01   9.0796456838278483e-01   9.0500879107050858e-01   9.0465214060691390e-01   9.0810375915436137e-01   9.0951794063143776e-01   9.1710327631765998e-01   9.0346040072737421e-01   9.4303969139272570e-01   9.3520157597905851e-01   8.9892251680513757e-01   8.9250806159697937e-01   9.2037888041655835e-01   9.1615167589494617e-01   9.0829899702383932e-01   9.0703174665855613e-01   9.0810556465747061e-01   9.0520776783926327e-01   9.0013752135369240e-01   9.0724064525313619e-01   9.0619629885328434e-01   9.0275471475021485e-01   8.9099843804079037e-01   8.8555666065032601e-01   9.0978026479428376e-01   9.1718168486695473e-01   9.0819446642661061e-01   9.0213067362295840e-01   9.0709437246900448e-01   9.1268318658572678e-01   9.5119393517748585e-01   8.7945610114044404e-01   8.8110822892202345e-01   8.9452392098969868e-01   9.1824778645883154e-01   9.0798449183981012e-01   9.1087217209955995e-01   9.0471898480305490e-01   9.1495968094347135e-01   9.0694409666352560e-01   9.1560451914114604e-01   9.0211578196415931e-01   9.0513640042133436e-01   9.0498620887755843e-01   9.0192408647514122e-01   9.4347015331471462e-01   9.0505487392127648e-01   8.9481347956147383e-01   9.0327541975438363e-01   9.0423050539448635e-01   8.9686106096459572e-01   9.0031365742589242e-01   9.0757508268007403e-01   9.1099807269826827e-01   9.0456398813854444e-01   9.0139367238697787e-01   9.0342809464922813e-01   8.9660308802468980e-01   9.16544532970017