<?xml version="1.0"?>
<VTKFile type="UnstructuredGrid"  version="0.1"  >
<UnstructuredGrid>
<Piece  NumberOfPoints="1109" NumberOfCells="1972">
<Points>
<DataArray  type="Float64"  NumberOfComponents="3"  format="ascii">1.328679721520367e-18 1 0  1.74656673132113e-18 1.197557891965322e-18 0  1 1.111617747431513e-18 0  1 1 0  0.851768111530588 0.5411056793444105 0  0.8556946961895615 0.4999677469407471 0  0.8518281607467784 0.4588789803038126 0  0.8407373714317333 0.4195386925415343 0  0.8231022157380377 0.3829433408904375 0  0.79949009183362 0.3485901327492045 0  0.7704744578998111 0.3144880006557566 0  0.737504575139373 0.2798509563923131 0  0.7027419086167487 0.2456288085711898 0  0.6683514850640598 0.2143812998573782 0  0.6343543062112548 0.1879672101960378 0  0.599025181519532 0.167298096459333 0  0.5610253206067778 0.1528114836933879 0  0.5206014244174607 0.1453638637289057 0  0.4794149003103805 0.1453353838441387 0  0.4389639408506491 0.1528124890393828 0  0.4009694853082362 0.1672828695967571 0  0.3655769622597911 0.1880253182256029 0  0.3316651989093858 0.2143686873008721 0  0.2972906101525717 0.2455739567782908 0  0.2624844980528213 0.2798227878270838 0  0.2294164497698021 0.314532881742912 0  0.2005377147794201 0.3486826584694501 0  0.1769468926660159 0.3830148743439623 0  0.1592417157918557 0.4194888071373644 0  0.1481994200285449 0.4589317831587494 0  0.1443343814868621 0.4999153438434372 0  0.1481091695862077 0.5410740792800647 0  0.1592464888861569 0.5804582763905797 0  0.1768819161335858 0.6170214724138552 0  0.2004899167275531 0.6514262188525011 0  0.2295301550841689 0.685558949691645 0  0.2622672571644618 0.7203408446781001 0  0.2970536701765519 0.754401588755915 0  0.3317147702385466 0.7856210941546673 0  0.3656089013447685 0.8120510581868463 0  0.4009950374222342 0.8326822684211272 0  0.4389822318366033 0.8471239958801202 0  0.4793878529331039 0.8546444316605567 0  0.5205795935008934 0.8546822849709307 0  0.5610362379721178 0.8471949346717936 0  0.599092438927426 0.8326840969439426 0  0.6343975233220794 0.8120055734117695 0  0.6683799192226614 0.7857624150856213 0  0.702930473298726 0.7544933657073927 0  0.7374890167049742 0.7203244747783372 0  0.770642229471 0.685606244385382 0  0.79956034474533 0.6514149607468824 0  0.82313194066575 0.6170315513378385 0  0.840739580056349 0.5804588517050862 0  0.5 1 0  5.100597258345199e-18 0.5 0  1 0.5 0  0.5 3.464927881617963e-18 0  0.75 1 0  0.25 1 0  3.783491859946413e-18 0.75 0  2.762012025956748e-18 0.25 0  1 0.25 0  1 0.75 0  0.75 3.557776297573057e-18 0  0.25 6.528891754457027e-19 0  0.625 1 0  0.375 1 0  4.81716303236798e-18 0.625 0  3.527973466580315e-18 0.375 0  1 0.375 0  1 0.625 0  0.625 6.055492066195591e-18 0  0.375 3.601860962689112e-18 0  0.125 2.915625486173685e-18 0  0.875 4.417860634138455e-18 0  1 0.125 0  2.98707947787506e-19 0.875 0  0.125 1 0  0.875 1 0  3.821386284818553e-18 0.125 0  1 0.875 0  0.1700975364208637 0.1465252068579286 0  0.8298834634954112 0.8533722206548715 0  0.8299300492596535 0.1464970245057216 0  0.1517180762166299 0.8482294301962906 0  0.907410137070589 0.2075037701796554 0  0.117109498314366 0.2335882041864031 0  0.8828773586878367 0.7665196195118386 0  0.1159316749985067 0.7350043194012054 0  0.2438082544686574 0.8826267981124438 0  0.08114906164977451 0.08116303307757985 0  1 0.0625 0  0.9375 3.37433581964847e-18 0  0.0625 1 0  1.585134365708249e-18 0.9375 0  0.9187980995554235 0.9188622704081119 0  0.707586862045409 0.1061746670603452 0  0.2924766382099399 0.1062117542354191 0  0.7445527472949095 0.8851222339113054 0  1 0.6875 0  1 0.3125 0  0.09064186161547515 0.3151619437708497 0  4.36968144776933e-18 0.6875 0  0.1875 3.354819653243352e-18 0  0.8125 3.804493198551978e-18 0  0.8965429248358517 0.2905182942809947 0  0.3125 1 0  0.6875 1 0  0.9103654345883995 0.08963178082885773 0  0.9020241051268467 0.6944500841583788 0  2.567220122673336e-18 0.8125 0  0.08539025085069463 0.9145959880880171 0  0.0776811704987494 0.8276598948175861 0  0.8191239977688294 0.2285234018503356 0  0.3114742493823783 0.903175843019725 0  0.6540127054581591 0.9074997308326029 0  0.9060730603616139 0.8417957055152273 0  0.09398779494407428 0.158056505361126 0  0.8125 1 0  0.08288531179549649 0.6420373059277765 0  0.9132520887823433 0.3492663519620037 0  0.2222312479496436 0.7981565027393819 0  0.6479746330364441 0.08219037443813701 0  0.3125 2.756316133058587e-18 0  0.357877736545971 0.08236206365014667 0  0.2492535391830825 0.1611904048402955 0  0.7826409208828734 0.09061872706985491 0  0.1706560306354644 0.9223529393285266 0  0.5625 1 0  0.4375 4.233387881589087e-18 0  0.4375 1 0  0.5625 9.720525858285819e-18 0  0.2026800988183416 0.08419939546930642 0  0.9131003473833063 0.6281171848195749 0  0.7559890047466928 0.1726043788887398 0  0.8119078975107655 0.9222168070976993 0  1 0.4375 0  5.559761613017187e-18 0.4375 0  1 0.5625 0  5.476373723000563e-18 0.5625 0  3.931199149435108e-18 0.3125 0  1 0.8125 0  0.0625 9.414174607698682e-19 0  1.397329282873266e-18 0.0625 0  1.923336360398345e-18 0.1875 0  1 0.1875 0  1 0.9375 0  0.9375 1 0  0.6875 4.12697876229386e-18 0  0.1875 1 0  0.7732755856832227 0.7935415275815458 0  0.1921272358041127 0.2238040803587711 0  0.8486717703019948 0.07328256449850254 0  0.1829321971764528 0.7507417304775513 0  0.3673076857622875 0.9173824795919998 0  0.9224049747078359 0.4228857251180928 0  0.07762979578966112 0.577190331058925 0  0.07327832981348398 0.4142725232971193 0  0.5860345621070775 0.0712191184019538 0  0.600746200384239 0.9177678742782981 0  0.4107202046472468 0.07367145868341672 0  0.069455393099405 0.7000211428215181 0  0.9306680440163555 0.5286369374962384 0  0.06933352183387953 0.471327769161463 0  0.1488159281667226 0.2939500828281131 0  0.1427096022018036 0.08075398245648754 0  0.9290801846344088 0.5801059732292142 0  0.6866518134018683 0.8591199996915116 0  0.7136913200846988 0.9319349203840118 0  0.06913017015232435 0.3615549683115523 0  0.9304356518655014 0.1457069517288967 0  0.418301894825755 0.9279265277295355 0  0.5365401120296091 0.06977824062431237 0  0.471132578188928 0.06523585980103401 0  0.46801122693995 0.9328912156336171 0  0.5288588270935205 0.9347515438639238 0  0.8420005749047514 0.7100925438828606 0  0.8136258379528282 0.7552111103537743 0  0.05353042888623313 0.7689515321422148 0  0.7226103733634419 0.8193969213111796 0  0.2695791669831631 0.8182870628836935 0  0.0530902606114854 0.2309295651738283 0  0.9347003254250899 0.7464999993889827 0  0.9285671220722467 0.4744577015985748 0  0.07145712263379102 0.5255717338552151 0  0.8620062548207879 0.909586220685434 0  0.8362219962308781 0.278827360363006 0  0.1319104138353158 0.6649911809149601 0  0.7694577597947827 0.948843647206027 0  0.1246597840449452 0.7833829118771414 0  0.1989012147549667 0.8658208544876659 0  0.2307234727177598 0.9478888544758233 0  0.8534856414374642 0.8053624727885004 0  0.8740457324073423 0.1718539005437816 0  0.9406118660920475 0.2431929711734456 0  0.9377141557757968 0.8041302379702603 0  0.2450919418554626 0.06085845719190509 0  0.3044267945630816 0.8469679285409182 0  0.7771653599911608 0.8508966477672686 0  0.7087915974508606 0.04655835691458321 0  0.291204342176399 0.04655110619427618 0  0.7515713901545844 0.05735084589293506 0  0.894391313420998 0.04342910181153766 0  0.04199160035743526 0.165577004375886 0  0.1453156277374597 0.1862759571506424 0  0.944696802155458 0.3054627768839797 0  0.1612476736279939 0.6947706410067416 0  0.9610592184111141 0.1008362498924552 0  0.2443595826278512 0.2250904906878397 0  0.0546002557267365 0.8775553667714853 0  0.100820150594459 0.9608716848757008 0  0.1650761230808356 0.03985351658553486 0  0.8590006732900419 0.3416820991127533 0  0.7550660122675037 0.2257548832146945 0  0.1043788189188243 0.0410124905476293 0  0.03807736309029306 0.1006165806665786 0  0.8924538327362894 0.9564504338570919 0  0.9619890949065669 0.8994079997414878 0  0.119049173492194 0.1205584427791099 0  0.9568560640932254 0.9568642532089399 0  1.579649388506613e-18 0.03125 0  0.03125 1.810634405658261e-18 0  0.04623866073123123 0.9537888956494023 0  0.950672752318295 0.04932115376595551 0  0.8736498288394907 0.6509820559011089 0  0.1678951283671877 0.799150452353843 0  0.1688500168097755 0.2587946958171974 0  0.09185464423335526 0.2725677454482271 0  0.28125 1 0  0.2738592284836263 0.9457298363977459 0  0.1031281746449648 0.8608220199641633 0  0.6627016286066462 0.1305737497997941 0  0.7097847179930653 0.1639417681628408 0  0.3385830787813824 0.1279170559657418 0  0.2955586394218037 0.1629959944098773 0  0.8944845901176869 0.3911271632908753 0  0.7951734647598268 0.1876923008349047 0  3.460336715500551e-18 0.28125 0  0.1454296066363183 0.3321845058601814 0  0.6375329327857305 0.9508516417307074 0  0.2077910859973944 0.1842374298230352 0  0.8869472419678107 0.2518751529151276 0  0.9571004465556409 0.7138684248296806 0  0.9380585710464472 0.6699922963318797 0  0.36515322813115 0.8645256176843356 0  0.244598982269502 0.1105886034706546 0  0.04578408288126912 0.04576072798121887 0  0.5616407629947402 0.9077583859548408 0  0.1286516358247968 0.9188089475994748 0  0.1230910241213434 0.3851639642391651 0  0.9541526274357101 0.1784611236368711 0  0.8755702976530938 0.1263408575926481 0  0.7423158332913751 0.1201192458528616 0  0.9530358480450333 0.857638696191267 0  0.84375 3.142353219776777e-18 0  0.8168751593977286 0.04820912081386598 0  0.498848471897929 0.9012701377066151 0  0.49999284282289 0.1006680447394163 0  0.8899474664436224 0.8795830124007413 0  0.7864653163036147 0.2698148730663585 0  0.07642239037469807 0.201518998420477 0  0.84375 1 0  0.8504342870142105 0.9542758026625467 0  0.1074712000210341 0.6042734408290596 0  0.05360145732724549 0.6168152496952585 0  0.4015902302629868 0.8855689150232886 0  0.59375 1 0  0.04955894989848047 0.2833473731627325 0  1 0.34375 0  0.9475048963528778 0.3718567579164236 0  0.2158210272572816 0.2660297159490767 0  0.309051226715643 0.9524803909458
[...]
<CellData  Scalars="dens"> 
<DataArray  type="Float64"  Name="dens"  format="ascii">8.3280449680884994e-01   7.8086735590283485e-01   7.7349944913725277e-01   7.7462938605129239e-01   7.6594672996174529e-01   7.4122750843747198e-01   7.7844540720945421e-01   7.9917752758568295e-01   7.8886386667464492e-01   7.5420301775785459e-01   7.6746872731288518e-01   8.1275029122213949e-01   7.7684965018582541e-01   7.9228591915626900e-01   8.0092679975065617e-01   7.8516077731181455e-01   7.7637731772571295e-01   7.4895433218647234e-01   7.4694502526151862e-01   8.3146431732122883e-01   8.0050238515944361e-01   7.9138555577142511e-01   7.8088595944253103e-01   7.5317485317652866e-01   8.0370472731373532e-01   7.8678164425845265e-01   8.2939703097262074e-01   7.8621496696684223e-01   7.5080754918460535e-01   7.9755097188372348e-01   7.7827585680964151e-01   7.5366237187747509e-01   7.8840366088957781e-01   8.0004825146672520e-01   7.7598700716993685e-01   8.1917210371173432e-01   7.6573618278033706e-01   7.5512494640368999e-01   8.4263833409290156e-01   7.9251366992558159e-01   7.9558385086580885e-01   8.3543750008489315e-01   7.6471000637365838e-01   7.6265969213954110e-01   7.8219318143050820e-01   7.6092818639922699e-01   7.6665310502633532e-01   7.4263501399218212e-01   7.9297574747096555e-01   7.8278859971420567e-01   7.8671627085372131e-01   7.6555994742740452e-01   7.7090078700945663e-01   7.9483171076233095e-01   7.8586135034229665e-01   7.8341703728838596e-01   7.8989238541268703e-01   7.5263208403532023e-01   7.7963636324179442e-01   8.4629100819734915e-01   8.3298288853972324e-01   7.8847377734171575e-01   7.7376393811026301e-01   7.9440959664433053e-01   8.3291971571814927e-01   7.5934399482156278e-01   8.0433808537952645e-01   8.6263560656778682e-01   7.7943321407399724e-01   8.0920614435517624e-01   7.8990692924864003e-01   7.9007432376747866e-01   8.1711455678773870e-01   7.7619529326074499e-01   7.8733456677718139e-01   7.8601293614569323e-01   7.9042206529125991e-01   7.7917545597438431e-01   7.7332884850995298e-01   7.8409540016474777e-01   7.6234207867622961e-01   7.9085601558221807e-01   7.7181124931886369e-01   7.8642078952750027e-01   7.9136779368395360e-01   7.7692166766718662e-01   7.8592411644439186e-01   7.8717561886936938e-01   7.9277222119479140e-01   7.7569719910432855e-01   8.6202711104612739e-01   7.8059196191679747e-01   7.9155501726381694e-01   7.6869541789753382e-01   7.7577840649909158e-01   7.6652840298333669e-01   8.0036767511564388e-01   8.0492974262113315e-01   7.9785184862451497e-01   7.6496482768944762e-01   8.0145715716748700e-01   7.8546890547714454e-01   7.7607911889316983e-01   7.8427062403417669e-01   8.0987679800825130e-01   8.1044047535149244e-01   8.1905006774570255e-01   7.5972464377665017e-01   7.4398585344639345e-01   7.9848365852098202e-01   7.7960080050362557e-01   8.6341536064316804e-01   7.9256911254984597e-01   7.4691315453270768e-01   7.6108546443651004e-01   7.7022205278628186e-01   8.1028649051482415e-01   7.8980391433436725e-01   7.5791882301771218e-01   7.4689481926668833e-01   7.8400576491853635e-01   7.5879196497798751e-01   7.6127225793260833e-01   7.6305462719359241e-01   7.7909726255672018e-01   7.7522644276414021e-01   7.7276702156335009e-01   7.8134561956595538e-01   7.6051356312457619e-01   7.4449764572423127e-01   7.7784027041766468e-01   8.5103369938213536e-01   7.5333601285059093e-01   7.6262358702019439e-01   8.0122597583150190e-01   7.8812807536954566e-01   8.2838820803193380e-01   7.9806838307799111e-01   7.8765251739965025e-01   7.9299336753312388e-01   7.9323467304471551e-01   7.9390406881738507e-01   7.1868925156807772e-01   7.8199273063437913e-01   7.4600856936907112e-01   7.5038359353232231e-01   7.6216966612735038e-01   8.1215441975382585e-01   7.6359298700756462e-01   7.6438498904772723e-01   7.7895432129319009e-01   7.3974586006072129e-01   7.5664675790238045e-01   7.3916304046267001e-01   7.7452717817273553e-01   7.6279590162128430e-01   7.7174007483674256e-01   8.0988494710204095e-01   7.7455137640910465e-01   7.6138975037611878e-01   7.4828985487099020e-01   7.1024884859619719e-01   7.7885189254186393e-01   7.3647280085494859e-01   7.3061052602949150e-01   7.6833464474221802e-01   7.8256003841139166e-01   7.7288626381005099e-01   7.2970625462237304e-01   7.4761236980810919e-01   7.8666755878313199e-01   7.4984996999937847e-01   7.6788713586091217e-01   7.7628506862161828e-01   7.7533481252957903e-01   8.1893626336335834e-01   7.8065237701811485e-01   7.6303293476024237e-01   7.6990149521803186e-01   7.7446000479520860e-01   7.8528761932388125e-01   7.6080632488889766e-01   7.4690571781256321e-01   7.6886796926781920e-01   7.4988299209876197e-01   7.6718540070268393e-01   7.7955600873851072e-01   7.8516385601433780e-01   7.7828764186691435e-01   7.7537844648925702e-01   7.7897058398424679e-01   7.7474243983825164e-01   7.8136662007575086e-01   7.2571454297505744e-01   7.7574585006556518e-01   7.4599502286012254e-01   7.9870782961486475e-01   7.6918487050152418e-01   7.9014289310115560e-01   8.2874110839402737e-01   7.7075696755274858e-01   7.7836439334512975e-01   7.9600549493940831e-01   7.6650613893400088e-01   7.7605300949247624e-01   7.7888535274213955e-01   7.8288743410431905e-01   7.7750350354730291e-01   7.7714771452367737e-01   7.8136781809041977e-01   7.6013925178007324e-01   7.5974068265586547e-01   7.9455114541880101e-01   7.8583817605979367e-01   7.8239838433012299e-01   7.8404257530065369e-01   8.0158475815721730e-01   8.4243388419216436e-01   7.7750071660609399e-01   7.6661448307348290e-01   7.8414422941335549e-01   7.8275140972754653e-01   7.8025657520070091e-01   7.8192661315197232e-01   7.8181196575760936e-01   7.8107240794764998e-01   8.1710242483411688e-01   7.9844559405058990e-01   7.7393083001756191e-01   7.7725279051475249e-01   7.7044209701085609e-01   8.4561795239442705e-01   7.8250986657841526e-01   7.8551614498106659e-01   8.1620324008498724e-01   7.5284465469637585e-01   7.5318666349643293e-01   8.3691713824292024e-01   8.3351622795715519e-01   7.8475365720509449e-01   8.1556800756842507e-01   7.9530113059137975e-01   7.9560594980152077e-01   7.3869941675343009e-01   7.6430057183081335e-01   8.0399296860318892e-01   7.9580553578013813e-01   7.9704058109074616e-01   8.1990630384829788e-01   8.8250934515040280e-01   7.9564495792430445e-01   7.9163463573112836e-01   8.0468819192391994e-01   8.1718593550302920e-01   8.5357510537502057e-01   8.7959347685948486e-01   8.4150505570465262e-01   8.3703433575185271e-01   8.6503340503231840e-01   7.9969362051439707e-01   7.5430091987552395e-01   7.5694154843456807e-01   7.5207344433169321e-01   7.7201299433088544e-01   7.8079437647086869e-01   7.7972925900906653e-01   7.9923141523523400e-01   7.4957651617155496e-01   7.8130646759080269e-01   7.6661744512883645e-01   7.7108747513808606e-01   7.8004424210891754e-01   8.1298187943044087e-01   7.7896431227287499e-01   7.9062431002498212e-01   7.5595396805572812e-01   7.9411629105015669e-01   8.6057956482971021e-01   7.9522471316882182e-01   7.6032557664571243e-01   7.5819672555821327e-01   7.3629162660950853e-01   7.5660184548072451e-01   8.2231690912696609e-01   7.9350735604845446e-01   7.6862259623677021e-01   7.5732431947428980e-01   7.7004342725549868e-01   7.7369454597338660e-01   7.7243399683116987e-01   7.5103084412456356e-01   8.1546695480617692e-01   7.7445572579636901e-01   7.8324074760276152e-01   8.4645948782280456e-01   8.6218781757748353e-01   8.1021591899229473e-01   7.7298951251069825e-01   7.8247031191603145e-01   8.2700603026043651e-01   7.8848373993120557e-01   7.8246929802123877e-01   7.7587518413290890e-01   7.9553022594062950e-01   7.8075640646343081e-01   7.8457225442694412e-01   8.2871619209206504e-01   7.9776083925915831e-01   7.8542139028101488e-01   8.0022078232637872e-01   7.8924499297118245e-01   7.9029217058986923e-01   7.8210049609110421e-01   7.7653860069813507e-01   7.7840062718294101e-01   7.8542092961971077e-01   8.0994256828715316e-01   7.9440128577367286e-01   7.7106825652041489e-01   7.9097669724077047e-01   8.0553337873044495e-01   8.3381232360231738e-01   7.8440960735951359e-01   7.9804563030618647e-01   8.0075541920309334e-01   7.5853425242052452e-01   7.9936665706297871e-01   8.2916576554042420e-01   7.4258325446676765e-01   7.4406376466504009e-01   7.7562644424988936e-01   7.9107445207629146e-01   8.0235755723187940e-01   7.3866637668525104e-01   7.5387241002569716e-01   7.5772784460623888e-01   7.4353984015755836e-01   7.5444223170033131e-01   7.4836449536351179e-01   7.6376408283973674e-01   7.8063367281357787e-01   7.7837289197759318e-01   7.8038278413005779e-01   7.7441237088233805e-01   8.6509545974539614e-01   8.2292833337447147e-01   7.6019702416306656e-01   8.2269170414513915e-01   7.4822422888217133e-01   7.7026368200424722e-01   7.8243339092838693e-01   7.7654049040244100e-01   7.5953920381739515e-01   7.6406489731796934e-01   7.4143154424119229e-01   7.9477420669049681e-01   7.8226465529442701e-01   7.6686788548324925e-01   7.8272269121657689e-01   7.6312749277641467e-01   8.0777577624197960e-01   7.7554856550331630e-01   7.7257441277637595e-01   8.0825243647352729e-01   8.1021824471168080e-01   8.2732808682843739e-01   7.9666606253357064e-01   8.0965029685509382e-01   7.9228034288068272e-01   7.6826958166180948e-01   7.7552079541989649e-01   8.0556105249789756e-01   7.7611850150403161e-01   7.4288544773716036e-01   7.4677913086675840e-01   7.6563044609884023e-01   7.8457479810743358e-01   8.0967625937608179e-01   8.1146067161574487e-01   8.5753123565327216e-01   8.0507782182878462e-01   8.0522159209840038e-01   8.3463044755052107e-01   7.6866457158443868e-01   7.6830783793402102e-01   8.2371415695543249e-01   7.9802296756946955e-01   7.2920258202128407e-01   7.0433777159533029e-01   8.1162424779579556e-01   8.3355028921554841e-01   8.2181427919570049e-01   7.5439181069754269e-01   7.4282717297831691e-01   7.3197181861881389e-01   8.0391077599131333e-01   7.6866947591462065e-01   7.8429991523000442e-01   7.6771702544647968e-01   7.8015323898206956e-01   7.5821003897518058e-01   7.7396846588319024e-01   7.8275598834619353e-01   7.8151594811670777e-01   7.7277694051405565e-01   7.8474187958164643e-01   7.8166120587647103e-01   7.8418575087338238e-01   7.5491904863221049e-01   7.3596783246609898e-01   7.0352240967711943e-01   7.0393262164215886e-01   7.6959989925453165e-01   7.6816228919641616e-01   8.4802469209682541e-01   8.1536629237362146e-01   7.6001342659268301e-01   7.2777991010889198e-01   7.5750767406416653e-01   7.4173062921252431e-01   7.7464073986421134e-01   7.6474621773643736e-01   7.9518948067392348e-01   8.3294828221335215e-01   7.1614797128999008e-01   7.7682832779640842e-01   7.4943659886065295e-01   7.8969906066515372e-01   7.9283539812116099e-01   7.7679548398953790e-01   7.6213010612933596e-01   7.6690048688985879e-01   7.6490318664066903e-01   7.8544362580431815e-01   7.4669539964157516e-01   7.6143687106720970e-01   7.1940379638446728e-01   8.2774242245898477e-01   7.5791529301479410e-01   7.5780173347007407e-01   7.7774659319380290e-01   7.8500021112031471e-01   7.9325374063707743e-01   7.8971373652574595e-01   8.2718610103486068e-01   7.0463309543568975e-01   8.1396675861774614e-01   7.7931369424367769e-01   7.6410165203679015e-01   8.0866855292693585e-01   7.9657353116671725e-01   7.9943291536000760e-01   8.0180411470667967e-01   7.4485698547288104e-01   7.4865771880774767e-01   7.4716419344302465e-01   7.5934365004158633e-01   7.5695469058836828e-01   7.6567347304576794e-01   7.5790389420876170e-01   7.9807429426648147e-01   7.9485469149760701e-01   7.7561442567702255e-01   7.7901500882763874e-01   7.6482707026539987e-01   7.4486962297228554e-01   7.5731675984873170e-01   7.5586102829616519e-01   8.0125105968930865e-01   7.9926761795989265e-01   7.8445914846691145e-01   7.6159052364616919e-01   7.4954132518962890e-01   7.6508849054621364e-01   7.8003415928343245e-01   7.7138629756311639e-01   7.8354083262287277e-01   7.8363057692111138e-01   7.2642842981466704e-01   7.3785031936595036e-01   7.1112345891628936e-01   8.6423248569113476e-01   8.0269754974626284e-01   8.6216276777357548e-01   7.6463718379179724e-01   7.4955794774014139e-01   7.7438628934689901e-01   7.7246190701764583e-01   8.0196196574490830e-01   7.9412584187491875e-01   7.8360154041240770e-01   7.7792790280734725e-01   7.7399053745137647e-01   7.7053431911447856e-01   7.9819199564057419e-01   7.5953673138295075e-01   7.9343506290193100e-01   7.8412930867966513e-01   7.7467959687919330e-01   7.7941752820480226e-01   7.7459073446257687e-01   7.5784908488570379e-01   7.7137710377810775e-01   7.9482695527772806e-01   7.9149329019554981e-01   7.9935559257377475e-01   7.8253901649885327e-01   7.1847020366039172e-01   7.5399424939437176e-01   7.6412460328395959e-01   7.3936440170491990e-01   7.8354297301054665e-01   8.2479036588623178e-01   8.2592445991446317e-01   8.1264205055979755e-01   7.8803909539096950e-01   7.6677331169557772e-01   7.7947987214895154e-01   7.7688863003802822e-01   7.3976037376104142e-01   7.6265961348599320e-01   7.7554517678565993e-01   7.7737466843301462e-01   7.6899508344111089e-01   7.3837617597912453e-01   7.0331910978603207e-01   7.7285801869636228e-01   7.7519883562343705e-01   7.4280111468146359e-01   7.6384684588115426e-01   7.4877958368733688e-01   7.5395594288059020e-01   7.6060219620780023e-01   7.5901677542082890e-01   7.9052703838404637e-01   8.0498783348262537e-01   7.8093569999117451e-01   8.0692238017799855e-01   8.1585608823541622e-01   7.8331172725173259e-01   7.8367856701435745e-01   7.9390586372847471e-01   7.4675423760148130e-01   7.3837684642847212e-01   8.3023010744618686e-01   8.2927548489585290e-01   8.2833820691444948e-01   8.6213075393768535e-01   8.6052868330084487e-01   8.8001975800426957e-01   8.2718824205632779e-01   8.3339045049474303e-01   8.0969570014726044e-01   8.5032117671487506e-01   7.9446277898536388e-01   8.1860941585604108e-01   8.2962767553341354e-01   8.1541229458391373e-01   8.1158923063732502e-01   8.3316848745518457e-01   8.3014438051929018e-01   8.3571547652632350e-01   7.4927182391293823e-01   7.3747881694418171e-01   7.7164702609125668e-01   7.7598279165723816e-01   7.8499281106760321e-01   7.6564316984584091e-01   8.0018579546143320e-01   7.8801216595099877e-01   7.5633397693285209e-01   7.3773075360507767e-01   8.2761209553418680e-01   8.3428818092165313e-01   8.0312994260836079e-01   7.8942855636696052e-01   7.8466407236389346e-01   7.7283829085277056e-01   7.8003038089241472e-01   7.9411065855658702e-01   7.2460803386736883e-01   7.4076409262050169e-01   7.3876936390610703e-01   7.4703977887163631e-01   7.1068505976573204e-01   7.0451246523369959e-01   7.2496206528784257e-01   7.5506493041011391e-01   7.5653109116134887e-01   7.3834776623839471e-01   7.5970630097349312e-01   7.3860755053490801e-01   7.1174677673856956e-01   7.3662399804526724e-01   7.4896355614159360e-01   7.3518506322077770e-01   8.1577120075551679e-01   8.4849649628785750e-01   8.3167707433393456e-01   8.4789267320783945e-01   8.6667853966792385e-01   8.4509607362269534e-01   9.1707864058686928e-01   9.1682416665677025e-01   8.8298080857343442e-01   8.6351064740797889e-01   7.6799152039382446e-01   7.3948814524399376e-01   8.0031726220450594e-01   8.1671357949003498e-01   7.8399190759459803e-01   7.8897114490233056e-01   7.5508345985796310e-01   8.0094307828938960e-01   8.0945509744862865e-01   8.0530460162552953e-01   8.4732823871335261e-01   7.8106140776250821e-01   7.7509826668120752e-01   7.8924387089600556e-01   7.7993845679341856e-01   7.8810837854947979e-01   7.8816451975242718e-01   8.2002771202132585e-01   7.9485866257061100e-01   7.1218586263932382e-01   7.3799808542232448e-01   7.6455812211949337e-01   7.4369964352426687e-01   7.2974212305804420e-01   7.5171741511688106e-01   8.1004701786556355e-01   8.0908787414390970e-01   8.0019396032670553e-01   7.9114301841567658e-01   7.8425478403743298e-01   7.8134985741953722e-01   7.8394196072511857e-01   8.4530652809025997e-01   7.7836285952165851e-01   7.4624497989783811e-01   7.4083428614201574e-01   8.3221736424812343e-01   7.6454124968377679e-01   7.8826149774155208e-01   7.0314593955944094e-01   7.3076012904790622e-01   7.9778757554152280e-01   7.0289008949097875e-01   7.3057518652685938e-01   8.0887208977780412e-01   8.1554646641015949e-01   8.0572386463940016e-01   8.2161142918970720e-01   7.9380055578913566e-01   7.8578364513235321e-01   7.7570578849704896e-01   7.9903215422175089e-01   7.9177499714479627e-01   7.3912240839471399e-01   8.4852110305793449e-01   8.3225302894088071e-01   8.2289732840386010e-01   7.9979820121277800e-01   7.5784409794026841e-01   7.7662722195024536e-01   8.3493724433048322e-01   7.9909907801591029e-01   8.1030383020081398e-01   7.5808764743916202e-01   7.9954946042018105e-01   8.4772253704868894e-01   7.9843548980107915e-01   7.8514844934780104e-01   8.0842771959129633e-01   8.0145320291948796e-01   8.4498538459318839e-01   8.2082483648495330e-01   8.4898672811954734e-01   7.7073565499801155e-01   7.6336669085886633e-01   8.6538753359637477e-01   8.3185244870214303e-01   7.6486705258707932e-01   7.7263525966517455e-01   7.5656870536045862e-01   7.8867785092236609e-01   7.8171791418000447e-01   7.6579151284427649e-01   8.0888669413925340e-01   8.6038911137930540e-01   7.4981884537610966e-01   7.5315671387383354e-01   7.8463517995588550e-01   7.6659247686759868e-01   7.9225974289987622e-01   7.5601069066950377e-01   7.6444385917748814e-01   7.6344149476259393e-01   7.5246782398377787e-01   8.1391731185194116e-01   7.8951730871585701e-01   8.2773199676814491e-01   8.0816429666635492e-01   8.1696950751989783e-01   8.1436844446615697e-01   7.6368974268180190e-01   7.9323339160552153e-01   7.1986476818940026e-01   7.3679918544318224e-01   7.7428460804029331e-01   7.7716966281419420e-01   8.1730325145081839e-01   7.7734078616087887e-01   7.9099104709410761e-01   7.1265964345559341e-01   7.4689873391309369e-01   8.0921208509214526e-01   8.4443148817028568e-01   8.2670951362314449e-01   8.6196635918786668e-01   7.6311593745162420e-01   7.5161619092369492e-01   7.4533314138228535e-01   7.5837885338465361e-01   8.2782802990789417e-01   7.9141398325842482e-01   7.9113250818156089e-01   7.9789764028918797e-01   7.9352154898272997e-01   7.9278292742999268e-01   7.9828419147219698e-01   7.8709484807104535e-01   7.9360362240743443e-01   7.7869128911572549e-01   7.7019500406485664e-01   7.6518261792904541e-01   7.8267767462043558e-01   7.8646945296421145e-01   7.7758039809275636e-01   7.7923833182378810e-01   7.9623030286360796e-01   7.7919549134679034e-01   7.8295811741109800e-01   8.6008000709206200e-01   8.2235294216132393e-01   8.4226002592003324e-01   8.2386491612625412e-01   7.7766478950766493e-01   7.6483861828047506e-01   7.9804343350368356e-01   7.9278578912074549e-01   7.8003191170107211e-01   7.7561006848141634e-01   7.8116857613053992e-01   7.7049889103037517e-01   7.5570780524802639e-01   7.7858978771928511e-01   7.7730692197678919e-01   7.7220846020262790e-01   7.5719390761651617e-01   7.3826856779511485e-01   7.7204809527744034e-01   7.8749371523643030e-01   7.8754613303611587e-01   7.7819393641124956e-01   7.5382466284480454e-01   7.6632131103678414e-01   8.6530585211263411e-01   7.3053326577565303e-01   7.2999692314668796e-01   7.7605541496209951e-01   8.3571296293932407e-01   7.7479739720456575e-01   7.8343350303337533e-01   7.9902756451581181e-01   8.3012727998997615e-01   8.0825124648356650e-01   8.4800785155706437e-01   7.7388475532007617e-01   7.8158911125675135e-01   7.5275563431383541e-01   7.5428896197603712e-01   8.4781194071543264e-01   8.2592897328650106e-01   7.7583627558035528e-01   7.9632522741812328e-01   7.8098578991848822e-01   7.4908327413430098e-01   7.4889555414545972e-01   7.7442476620806089e-01   7.8390186742620549e-01   7.6097166968693120e-01   7.4852752514847343e-01   7.9601561602673621e-01   7.7677438251706010e-01   8.60076902073304