<?xml version="1.0"?>
<VTKFile type="UnstructuredGrid"  version="0.1"  >
<UnstructuredGrid>
<Piece  NumberOfPoints="1109" NumberOfCells="1972">
<Points>
<DataArray  type="Float64"  NumberOfComponents="3"  format="ascii">1.21795641139367e-18 1 0  1.37252209838952e-18 1.159169067138228e-18 0  1 1.000455972688362e-18 0  1 1 0  0.8589771815088266 0.5422987581535217 0  0.8627283416021244 0.4999604314012475 0  0.8590380849743172 0.4577030074675372 0  0.8484148599058227 0.416894315207229 0  0.8314216014155971 0.3783426282461126 0  0.8084629601778612 0.3416641557219721 0  0.780053388870065 0.3055915594414059 0  0.7474200533070919 0.2699982822779083 0  0.7122629621667322 0.2358251285235064 0  0.6763658372950113 0.2050993222413446 0  0.6401070492070725 0.1793175009505008 0  0.6025890808888466 0.1593079336327138 0  0.5628814646283451 0.1453991604919639 0  0.5211771429802443 0.1382803650878028 0  0.4788253562241411 0.1382518544604118 0  0.4370968000457861 0.1453988799541343 0  0.3973991399822016 0.1592968202612406 0  0.3598286402316032 0.179373979100353 0  0.3236392778125315 0.2050885159408318 0  0.2877644774598141 0.235782181893579 0  0.2525684157966129 0.2699780985601584 0  0.2198590051474561 0.3056407127441769 0  0.1915634645089566 0.3417371024443487 0  0.1686243730997762 0.3784138121609332 0  0.1515606267202546 0.4168482044649247 0  0.1409879178967519 0.457743595189373 0  0.1372976990597794 0.4999180758022505 0  0.1409044578683942 0.5422585999130837 0  0.1515692586272923 0.5831134762176839 0  0.1685640906898963 0.6216205819646005 0  0.1915175019809266 0.6583499032031982 0  0.2199460672393934 0.6944385946739347 0  0.2524032570282942 0.7301421482830706 0  0.2875812364284365 0.7642007205528456 0  0.3236907074160127 0.7949006432488475 0  0.3598681054133117 0.8206956442394905 0  0.3974260859826158 0.8406755005913344 0  0.4371181635686285 0.8545381962999911 0  0.4787997963346349 0.861727758109838 0  0.5211545332172068 0.8617620521212063 0  0.5628996752042235 0.8546033823542171 0  0.6026583907485925 0.8406733310550303 0  0.640153065979603 0.8206581876143231 0  0.6763677489092667 0.795023191647005 0  0.7124008255198967 0.7642748237218092 0  0.7474024613497992 0.7301315068011608 0  0.7801927704985919 0.6944676742631378 0  0.8085217296490491 0.6583357265627586 0  0.8314459808265954 0.6216408879071409 0  0.848422799934052 0.5831050675849266 0  0.5 4.619903842157284e-18 0  0.5 1 0  1.549066861884736e-18 0.5 0  1 0.5 0  0.25 3.264445877228513e-18 0  0.75 1.616013442069018e-18 0  0.75 1 0  0.25 1 0  1.235804104970197e-18 0.75 0  2.632853140982702e-18 0.25 0  1 0.25 0  1 0.75 0  0.375 1.800930481344556e-18 0  0.625 4.238844446336914e-18 0  0.625 1 0  0.375 1 0  3.334959022408602e-18 0.625 0  2.490334211703752e-18 0.375 0  1 0.375 0  1 0.625 0  0.125 1.749375291704211e-18 0  0.875 3.534288507310764e-18 0  1.59107812841635e-18 0.875 0  0.125 1 0  0.875 1 0  1.046657255283546e-18 0.125 0  1 0.125 0  1 0.875 0  0.16534156271337 0.1418963611982575 0  0.8346409641073473 0.8580177680586123 0  0.8346804641503338 0.1418736608129954 0  0.1472561611325605 0.8527007136755131 0  0.9107734596366238 0.2038575130005358 0  0.1126636595539072 0.2289952378576824 0  0.8873276490836015 0.7710878538603909 0  0.1112552277661465 0.7394917774059312 0  0.2392013305968374 0.8871648018892241 0  0.07924068336863689 0.07924957487355896 0  0.0625 1 0  2.286022595845572e-18 0.9375 0  1 0.0625 0  0.9375 2.599451031250478e-18 0  0.9207140692187137 0.9207673624547819 0  0.7114919945074187 0.1016823472863626 0  0.2885577528003906 0.1017169267745171 0  0.7490484902010061 0.8896690531362 0  1 0.6875 0  1 0.3125 0  0.08664724797111194 0.3121457269716196 0  2.840292941050064e-18 0.6875 0  0.1875 2.725790968260224e-18 0  0.8125 1.690885866023102e-18 0  0.9009070728506932 0.2867072539817057 0  0.3125 1 0  0.6875 1 0  0.9125404575420819 0.08745741638149797 0  0.9062610099998576 0.6978793602409568 0  3.909164488751466e-18 0.8125 0  0.08333736240835589 0.9166514283396537 0  0.07507611982185901 0.8306266714765679 0  0.8256451951872605 0.2219534977434215 0  0.3081758472649541 0.9074043198574439 0  0.6566421624172171 0.9117305668752987 0  0.9090793779828421 0.8451292319712801 0  0.09096485956728764 0.154743645053161 0  0.8125 1 0  0.07903967242286662 0.6441652425689314 0  0.9172333649769786 0.3468704240167373 0  0.2152125399504048 0.8051670593438912 0  0.6501795189199086 0.07840004849268271 0  0.3125 3.16979763653576e-18 0  0.3557532686836136 0.07854156952528171 0  0.2430732463335875 0.1550169570260113 0  0.78623111588481 0.08726172694278338 0  0.1677016616633621 0.9249466612138071 0  0.5625 1 0  0.4375 3.175040911191815e-18 0  0.4375 1 0  0.5625 4.536245400533382e-18 0  0.1993606688746318 0.08116001091420659 0  0.9171801174687638 0.6301411549533132 0  0.7624966005500085 0.166121244187992 0  0.814962325939818 0.9249374804097003 0  1 0.4375 0  2.2774927089468e-18 0.4375 0  1 0.5625 0  3.977624591682797e-18 0.5625 0  4.354954288935654e-18 0.3125 0  1 0.8125 0  0.0625 2.058984669581739e-18 0  1.376525372954557e-18 0.0625 0  -3.885528000804738e-19 0.1875 0  1 0.1875 0  1 0.9375 0  0.9375 1 0  0.6875 3.369142532885717e-18 0  0.1875 1 0  0.7805239163073378 0.8007679942885839 0  0.185340764177348 0.216976316482504 0  0.8513705191032451 0.07094951516279438 0  0.1760236988151967 0.7576506407900572 0  0.3653241906568415 0.9212496091372603 0  0.9261574066282805 0.4218550547627458 0  0.0738757910345772 0.5782128243389933 0  0.06974414949143701 0.4131902521636369 0  0.5870741707839237 0.06778122658556546 0  0.6022092937026523 0.9217026237568677 0  0.4095963389235498 0.07012223006441851 0  0.06645067843328184 0.7024158900617788 0  0.9340497515838877 0.5289647466442139 0  0.0659493002848625 0.4710035092795792 0  0.1426075474145566 0.2883188188521987 0  0.1398948961808363 0.07825927496142672 0  0.9325089365481349 0.5810604243572073 0  0.6917312544283228 0.8652126849945261 0  0.7161415063078692 0.9348276641665794 0  0.06590535010553929 0.3598718538737326 0  0.9326162556215262 0.1431597239937289 0  0.4173076931653505 0.9314078193297984 0  0.5369669860913001 0.06637477207421483 0  0.4708364211477231 0.06205217076051151 0  0.4676679630197621 0.9361667966890757 0  0.5291639066209316 0.9379330821006097 0  0.8485314351963602 0.716129752161529 0  0.820581999151844 0.7621751902500356 0  0.05145661759474078 0.7711022502414204 0  0.7295914795435327 0.8266324260373422 0  0.2625819572637263 0.8254467296777044 0  0.05102880357736623 0.2287972147172062 0  0.9373204973231897 0.7490450450036792 0  0.9320555460734391 0.4741640891004902 0  0.06796885788845206 0.5258588041808173 0  0.8650152365582863 0.9123227052821267 0  0.8428542544145596 0.2725043992268421 0  0.1260104409893959 0.6692848294541539 0  0.7715145467203621 0.9508257939318016 0  0.1201203374825694 0.7881512619695927 0  0.194009047464656 0.8704759613420258 0  0.2286322365412178 0.9499105656844717 0  0.8584698850450042 0.810527165465905 0  0.8781246963906122 0.1675307083799082 0  0.9429564077612309 0.2408425079890547 0  0.9399494725956655 0.8066380713933365 0  0.2426877580683929 0.05844710402567104 0  0.2987200074363839 0.8534633403216668 0  0.7827388092098871 0.8563171147339409 0  0.7104032320797059 0.04455384324529374 0  0.2895948862633412 0.04454919909736645 0  0.7538177137303875 0.05506000539042434 0  0.8958809296896085 0.04221531314455498 0  0.04057619398600647 0.1638688447523352 0  0.1404736820195914 0.1812407916458734 0  0.9471252471664685 0.3036394716775075 0  0.1544154263875168 0.7008025238366072 0  0.9621295554455355 0.09950500156528902 0  0.2363012875669037 0.2170233193582212 0  0.05299782200770282 0.8794824819607876 0  0.09949302589662805 0.9619456153599792 0  0.1634574750606077 0.03851733071120837 0  0.8653459986440002 0.3371706333258042 0  0.7631477860135649 0.2176478651882858 0  0.1029720929492381 0.03986941856932048 0  0.03702999333359683 0.09932549691566563 0  0.8939468642588676 0.9576798361631257 0  0.9630247581264018 0.9006868360170445 0  0.1158159487786274 0.1173053339177406 0  0.9576793770382951 0.9576860839339578 0  9.29205522650949e-19 0.03125 0  0.03125 1.120868917788448e-18 0  0.9516446290244251 0.04835145158329078 0  0.04534386127359176 0.9546744761088753 0  0.8794137846523964 0.6547699915901847 0  0.1622062528969798 0.8049490283721654 0  0.1622854691564402 0.2523188603974978 0  0.08807458776020176 0.2690681042899472 0  0.28125 1 0  0.271854292139779 0.9479972799705894 0  0.1000481757368331 0.8640976193659748 0  0.6668949005113431 0.1247112811286802 0  0.7160738381573331 0.1571664704054424 0  0.3345097229801401 0.1221674679483331 0  0.2893411814841895 0.1562051226696248 0  0.8995075586580349 0.3889794133015614 0  0.8014940927004552 0.1814050182225596 0  2.209112243577542e-18 0.28125 0  0.1389708565826433 0.3272644979687399 0  0.6386673638551422 0.9531518601775441 0  0.2014807374413736 0.177985144566108 0  0.8913988337418928 0.2474364319147714 0  0.9589362860161995 0.7153746364145172 0  0.9408521420074627 0.6718253632386304 0  0.3614620948800838 0.8708146613123179 0  0.2402477885331041 0.1062917751779848 0  0.04489851752612586 0.04487799117568793 0  0.56263449749981 0.9122376170524243 0  0.12599050170351 0.9212007238560953 0  0.1172663133967759 0.3824043596359462 0  0.9557404912333647 0.1766018656843523 0  0.8790021468641104 0.1228974006284468 0  0.7470105063262334 0.1153458263113737 0  0.9545135647102402 0.8594405956935152 0  0.84375 1.785229801399548e-18 0  0.8188265014936887 0.04652172741517053 0  0.498823752885991 0.906089379676481 0  0.4999859582647995 0.09575369428777941 0  0.892970913216549 0.8826755924694744 0  0.7946984380839496 0.2617323630288685 0  0.07366079744506641 0.1984663949675931 0  0.84375 1 0  0.8522203538972132 0.9557455276611577 0  0.1023390283805135 0.6063797553551297 0  0.0510577849539967 0.6178688462669204 0  0.3994377240713102 0.8910494245017858 0  0.59375 1 0  0.04745560921525706 0.2815783757664385 0  1 0.34375 0  0.9499781382928634 0.370722931579309 0  0.2075747924486672 0.257881718949614 0  0.307523
[...]
<CellData  Scalars="dens"> 
<DataArray  type="Float64"  Name="dens"  format="ascii">8.1357805828815410e-01   8.0173663932634154e-01   8.0440960671641182e-01   7.9580698204053124e-01   7.7280049728002376e-01   8.0598561491859777e-01   8.1667337812927043e-01   8.5013368059295613e-01   8.2290434276018132e-01   7.8643855557901099e-01   7.9638174258719685e-01   8.3122476012044755e-01   8.0322034974703549e-01   8.2135813008458558e-01   8.2196189674829079e-01   8.1016881680486541e-01   8.0492066057833822e-01   7.8602767730730561e-01   7.7783895369892175e-01   8.4916907816901877e-01   8.2292231446064867e-01   8.2020945802290823e-01   8.0913254280090430e-01   7.8833336648090180e-01   8.2442292254890881e-01   8.1375884366396800e-01   8.1150695246157500e-01   8.4782623191947870e-01   7.8680082739926405e-01   8.2723329261337608e-01   8.0785158577115945e-01   8.0384084045303483e-01   7.8467764131110540e-01   8.1324385032776914e-01   8.2146434293111903e-01   8.4910617770655217e-01   8.0042254788799083e-01   7.9009858120466914e-01   8.2486965726470796e-01   8.2470148519712461e-01   8.6288562610362929e-01   8.0022108033486272e-01   8.6784447916252239e-01   7.9713219432234417e-01   8.1118016040758978e-01   7.9448786264474835e-01   7.9931540249557465e-01   7.7775165403802737e-01   8.2234715658547164e-01   8.1315454296053735e-01   8.1287411709901336e-01   7.9605177654916426e-01   8.0291573502765212e-01   8.2387648967747307e-01   8.1458999125858778e-01   8.0855646116236779e-01   8.1446525615603360e-01   7.8819292807976993e-01   8.0883869510786310e-01   8.2151027209492078e-01   8.0451972535053751e-01   8.2756674433370181e-01   8.6011731833031357e-01   8.7041399550604226e-01   8.6123960093834517e-01   7.9341510809412963e-01   8.2444652158717757e-01   8.6977583663739289e-01   8.0900746453433792e-01   8.2529900713331539e-01   8.1405706256268917e-01   8.1380216057516430e-01   8.3495115501924444e-01   8.0388473481811829e-01   8.1108582104673932e-01   8.0989373093257588e-01   8.1294300763425764e-01   8.0575382370668736e-01   8.0223688034786522e-01   8.1645379916345440e-01   7.9580894013848436e-01   8.1495599272088670e-01   7.9917405401604280e-01   8.1160256659100771e-01   8.1613907731007318e-01   8.1202619476597304e-01   8.1938365806340119e-01   8.1124796398881116e-01   8.2237109353583104e-01   8.0648190551189913e-01   8.8558506324547226e-01   8.1535979629002908e-01   8.2201273844887046e-01   8.0035936713608269e-01   8.0969208083462896e-01   7.9588170624675347e-01   8.1800214069727484e-01   8.2476342306833961e-01   8.2037776903019899e-01   7.9933056396273672e-01   8.2989733013441236e-01   8.1421598997583244e-01   8.0959251507186658e-01   8.1706951250364290e-01   8.3888998275623838e-01   8.3192223286751754e-01   8.3634606952893453e-01   7.9466420040807040e-01   7.7991704568243336e-01   8.2020048595299422e-01   8.0673697226122820e-01   8.7301403848948977e-01   8.1594120207932652e-01   7.8334801804421972e-01   7.9706606056350426e-01   8.0297460528036568e-01   8.3926945085443949e-01   8.2344982948402223e-01   7.8788023964504805e-01   7.7853091316970302e-01   8.1007787802581877e-01   7.8876362815283585e-01   7.9010784572792014e-01   7.9661126636264123e-01   8.0943979400838129e-01   8.0195784059300490e-01   8.0407746475611463e-01   8.1038214219801785e-01   7.9661992587266883e-01   7.7635091433936898e-01   8.0442271918685371e-01   8.6507304421280495e-01   7.8356181420442772e-01   7.9253590115065187e-01   8.3027297367480313e-01   8.1264942954326047e-01   8.5683149552183768e-01   8.2702938413197435e-01   8.1659059325335381e-01   8.2354357399616251e-01   8.2646559578815548e-01   8.1554958879980521e-01   7.5477532735410535e-01   8.1047323094349788e-01   7.8226640517725088e-01   7.8692859004306237e-01   7.9693929413596098e-01   8.4068136693399698e-01   8.0026081094421575e-01   7.9499100975246528e-01   8.0536245938108508e-01   7.7282026681163463e-01   7.8731419376636302e-01   7.7121706242608434e-01   8.0253526088350580e-01   7.9113071022614845e-01   7.9825439522120123e-01   8.3035790956207933e-01   8.0102992965431363e-01   7.9135804859069248e-01   7.7991616227192129e-01   7.4639126034020231e-01   8.0490251168856808e-01   7.7002540495674721e-01   7.6470069699257592e-01   7.9846495373306092e-01   8.0749473541064398e-01   8.0831977773549379e-01   7.6403004933226570e-01   7.7907718363226708e-01   8.1144036152466792e-01   7.8369759374795311e-01   7.9868875129220140e-01   8.0446671479445531e-01   8.0286215198989130e-01   8.4598779747563158e-01   8.1433862885962371e-01   7.9196240514490535e-01   7.9748860400720978e-01   8.0225637888009615e-01   8.1092613160234939e-01   7.9104574480458123e-01   7.8079312364304998e-01   8.0112976013891868e-01   7.8703760405586820e-01   8.0108029142673787e-01   8.0923122759599719e-01   8.1461484834432685e-01   8.0467751402783050e-01   8.0324083493914666e-01   8.0536894767568534e-01   8.0518263731486805e-01   8.0858567192823727e-01   7.5943986414669074e-01   8.0315565827617930e-01   7.7740692102554898e-01   8.2148629510988136e-01   8.0506683736095130e-01   8.2338320489271888e-01   8.4245183475491425e-01   8.0137733870176309e-01   8.0609923404544193e-01   8.2495437052649134e-01   7.9769524431495409e-01   8.0476868209148722e-01   8.0782789117398734e-01   8.1189617025549499e-01   8.0723969695311071e-01   8.1121707311965707e-01   8.1412471974153122e-01   7.9425047444868802e-01   7.9643259550966350e-01   8.2349978851537109e-01   8.1596993800019135e-01   8.1230555775525404e-01   8.1384015311073699e-01   8.2150383951958894e-01   8.5154965846351527e-01   8.0418298900112239e-01   8.0028701894401133e-01   8.1103889663244910e-01   8.0940807477781074e-01   8.0911867978421659e-01   8.1099045920447166e-01   8.1017224702911583e-01   8.1403466249524303e-01   8.4447210675265683e-01   8.2721217894381560e-01   8.0717510575957296e-01   8.1231321874987794e-01   7.9950128161385570e-01   8.5393762187453071e-01   8.0876302497913277e-01   8.1961346919288891e-01   8.4622748857871677e-01   7.8836331597138321e-01   7.8724308761098460e-01   8.6446559209872531e-01   8.6017196794202821e-01   8.1749323805173157e-01   8.4261161733186596e-01   8.1705575284828935e-01   8.1690749336366442e-01   7.7637101288686927e-01   7.9675190850637767e-01   8.3490207241946968e-01   8.2865598311939237e-01   8.2866828768765943e-01   8.4749554799188720e-01   9.0170177419601683e-01   8.2816601652013100e-01   8.2492647240066896e-01   8.3627484965437282e-01   8.4624610680791279e-01   8.7654674196215854e-01   8.9924896869231408e-01   8.6838794896230431e-01   8.6420908392320361e-01   8.8798519800638576e-01   8.1937009303578334e-01   7.8976606981239217e-01   7.9352436557545492e-01   7.8773181323301100e-01   8.0392196079391498e-01   8.0610035446435313e-01   8.0529341816129063e-01   8.2111509078470202e-01   7.8407735543659751e-01   8.0888721519113649e-01   8.0100915404754192e-01   8.0672912418248632e-01   8.0473476373248609e-01   8.3049594065777810e-01   8.0573655181723192e-01   8.1387731453633494e-01   7.8989496110551216e-01   8.1624202374510146e-01   8.6825605241108594e-01   8.1769760821055681e-01   7.9615621288053839e-01   7.9457583348235516e-01   7.7164839581873257e-01   7.8927621643834123e-01   8.3761528520924466e-01   8.1706443685377095e-01   8.0311747195982364e-01   7.9134415026341010e-01   8.0017997928260454e-01   8.0372514013211649e-01   8.0047803340091106e-01   7.8365138581672733e-01   8.3122949979251348e-01   8.0491530004463696e-01   8.1344869035864165e-01   8.7236236822402391e-01   8.8575551303792210e-01   8.3089664488407777e-01   8.0763491427372658e-01   8.1643874753024015e-01   8.4086942790699926e-01   8.1818499833033587e-01   8.1232002737454279e-01   8.1069026494508634e-01   8.2872135392298774e-01   8.0835682750844828e-01   8.1229351684875051e-01   8.5527482319509995e-01   8.2935058363643099e-01   8.1562004897049489e-01   8.2862208464280895e-01   8.1981902169608878e-01   8.1949039876765217e-01   8.0880617207637151e-01   8.0274811750642339e-01   8.0417425252006425e-01   8.1904255832172790e-01   8.4055326685448073e-01   8.1610809903848058e-01   8.0350950160702239e-01   8.2016408492898762e-01   8.3345242461095959e-01   8.5893739386555401e-01   8.1528719512906822e-01   8.2684978126430186e-01   8.2212721830097579e-01   7.8943447687952739e-01   8.2081528705431028e-01   8.4493409601725677e-01   7.7495889021837649e-01   7.7659708437889940e-01   8.0502493107688811e-01   8.1584173770137758e-01   8.2342982957026256e-01   7.7390425847728772e-01   7.8543952028183783e-01   7.8882454341247776e-01   7.8013044736545034e-01   7.8960382284269326e-01   7.8155670573164071e-01   7.9386574596318282e-01   8.0850565924864293e-01   8.0585953581050540e-01   8.0571784702332583e-01   8.0210291544971735e-01   8.7451329142508960e-01   8.3879062676832827e-01   7.9318728884577372e-01   8.3661079469596356e-01   7.8154140350290668e-01   8.0066361304735578e-01   8.0582997349789920e-01   8.0460476460972086e-01   7.8969843415627961e-01   7.9324854393183730e-01   7.7390937547285454e-01   8.1733062484674124e-01   8.0844921879964415e-01   7.9653673349209431e-01   8.0816783107991685e-01   7.9375884112876438e-01   8.2661294598767332e-01   8.0579451019024584e-01   8.0574188571906691e-01   8.2857782419875325e-01   8.3206326809593223e-01   8.4220610110543925e-01   8.1794181954607770e-01   8.2735811849734042e-01   8.1399517992224502e-01   8.0382402656761609e-01   8.0633118710437790e-01   8.3387138898359803e-01   8.0928803155243390e-01   7.8091524774878363e-01   7.8369675969081209e-01   7.9586113190396501e-01   8.0970964934524337e-01   8.4047014980092105e-01   8.2658032524242497e-01   8.6453939014218373e-01   8.3385849863061134e-01   8.3364642526266541e-01   8.5968381269248584e-01   8.0397510151853901e-01   8.0318126857003314e-01   8.3762591440493883e-01   8.1664124623907308e-01   7.6336124413770223e-01   7.4046671456433466e-01   8.3038687109245612e-01   8.4470023396184812e-01   8.3800665684487707e-01   7.8547809220832887e-01   7.7625764814688825e-01   7.6586240027601116e-01   8.3189777215660266e-01   8.0352119976948211e-01   8.1568218369613954e-01   8.0078181409217386e-01   8.1057780607707297e-01   7.9316642660360503e-01   8.0739214654616132e-01   8.1696425821324925e-01   8.1507544499089790e-01   8.0185517251548011e-01   8.1068709596716026e-01   8.0843275681234439e-01   8.1141252156868560e-01   7.8496957466967843e-01   7.6823291283441186e-01   7.3966542304851746e-01   7.4004856855267753e-01   7.9895388860906447e-01   7.9772520659347312e-01   8.5637293101965684e-01   8.2963868557279752e-01   7.9028090925034866e-01   7.6359855852135494e-01   7.9233164025447778e-01   7.7899171875744444e-01   8.0091201829335090e-01   7.9424500558794053e-01   8.1683042934655581e-01   8.4812065578746032e-01   7.5225397157979068e-01   8.1196701701745044e-01   7.8683069284915153e-01   8.1446310336878180e-01   8.1711054364270153e-01   8.0364050864748471e-01   7.9557711201351444e-01   7.9693724407520905e-01   7.9448867225665365e-01   8.1055034279308447e-01   7.7967618914924353e-01   7.9171782399721358e-01   7.5545715720777329e-01   8.4249159554237962e-01   7.9391818046175022e-01   7.9173220182773896e-01   8.0448250228750950e-01   8.1228660874870651e-01   8.2225325135561333e-01   8.1932065836797252e-01   8.4304366102605144e-01   7.4076478641382926e-01   8.3270601426382473e-01   8.0604118989482854e-01   7.9491901268230214e-01   8.2584212866081397e-01   8.1743062595293603e-01   8.2845676156721326e-01   8.3084024230002829e-01   7.8053933329231207e-01   7.8440066388534113e-01   7.8236928281971896e-01   7.9525348722164602e-01   7.9353941292110186e-01   7.9995333420779757e-01   7.9396220754324809e-01   8.2750428379072560e-01   8.2380848511952665e-01   8.1001139628513585e-01   8.1301803570134024e-01   7.9889815646652851e-01   7.8100203778669308e-01   7.9084319309030526e-01   7.8899655458191409e-01   8.2245994177543569e-01   8.1900466029429897e-01   8.0958166150498778e-01   7.9315196734064886e-01   7.8245717169256002e-01   7.9459571522267924e-01   8.0911648451592477e-01   8.0405258522585310e-01   8.1377926987778337e-01   8.1266983493336964e-01   7.6229368914937523e-01   7.7145962714209249e-01   7.4732478512444811e-01   8.7461075639245878e-01   8.2284683418781190e-01   8.6918174792060054e-01   7.9479004036100753e-01   7.8255026066613442e-01   8.0632287925703761e-01   8.0390681463345803e-01   8.3051648014557511e-01   8.2336830105205039e-01   8.1810437775788147e-01   8.1046466626475444e-01   8.0179046592250702e-01   7.9830878731818677e-01   8.2193726553295088e-01   7.8872955176993043e-01   8.1509017512026483e-01   8.1213274624832132e-01   8.0688092680385537e-01   8.0824059506087031e-01   8.0342060984740482e-01   7.8844380184820728e-01   8.0105340229480426e-01   8.1542993668206221e-01   8.1496141914769504e-01   8.2108611934293363e-01   8.0805967546533708e-01   7.5459118597128194e-01   7.8537252748357400e-01   7.9388169987474877e-01   7.7186760967088053e-01   8.0680295636104560e-01   8.3828793715057048e-01   8.5288028021234541e-01   8.4001700306946170e-01   8.1879166732049447e-01   8.0113676973042891e-01   8.1021338795672015e-01   8.0593671014207802e-01   7.7691482396170375e-01   7.9603218347781601e-01   8.0604680128978612e-01   8.0497131821402490e-01   7.9955279796023138e-01   7.7056855941690816e-01   7.3946018075474396e-01   8.0421886476076243e-01   8.0445315200949763e-01   7.7798187637270899e-01   7.9653599223595462e-01   7.8110923227333895e-01   7.8616435689312836e-01   7.9666266243422068e-01   7.9555012055069274e-01   8.1393625374865619e-01   8.2519043701984329e-01   8.1103556697331669e-01   8.3594329030546133e-01   8.4319246426170980e-01   8.1311162708654350e-01   8.1330225285701574e-01   8.2339248273643761e-01   7.8149206343765742e-01   7.7365360478957002e-01   8.5549854873698017e-01   8.5625426217111356e-01   8.5667021431849177e-01   8.8528404073672229e-01   8.8445443260444434e-01   8.9955064915514149e-01   8.5477283031507800e-01   8.5854527995027274e-01   8.3850581148225767e-01   8.7395668444729757e-01   8.2392431802998001e-01   8.4585735213642621e-01   8.5732333704271479e-01   8.4278515262020282e-01   8.4023033317470341e-01   8.6046331609155013e-01   8.5783836891975707e-01   8.6058519187705895e-01   7.8383275514026141e-01   7.7282798048611301e-01   8.0115894506136820e-01   8.0649326556552292e-01   8.1452809676183557e-01   7.9724159303025099e-01   8.2944321355520456e-01   8.1867734231417832e-01   7.8622905094916107e-01   7.6991757844656994e-01   8.5318958929842059e-01   8.5935492762494237e-01   8.3202215284811210e-01   8.1858432405608927e-01   8.1389101447586221e-01   8.0306842934105171e-01   8.0903709604134044e-01   8.2329450853648634e-01   7.5828460496418726e-01   7.7338864869061630e-01   7.7087903670958779e-01   7.7848261783915595e-01   7.4688584408511494e-01   7.4063385950544969e-01   7.5866066814031863e-01   7.8496438471759489e-01   7.8633257113977106e-01   7.7026972909840241e-01   7.8941856036475566e-01   7.7095973573287280e-01   7.4787575591902422e-01   7.6979932822763730e-01   7.8008269065069313e-01   7.6875817029264326e-01   8.4582106997840800e-01   8.7412888772880015e-01   8.5774312032822353e-01   8.7182050802522582e-01   8.8917727477057884e-01   8.7118615156750301e-01   9.3159576724514959e-01   9.3141451381872153e-01   9.0205281731661080e-01   8.8651619896213296e-01   8.0080512093001743e-01   7.7470143147112025e-01   8.2878784660109472e-01   8.4370562116303816e-01   8.1358807999787064e-01   8.1960186552271064e-01   7.8915663374515899e-01   8.3192396144395719e-01   8.3857862410194373e-01   8.2653266882809828e-01   8.6137642241635171e-01   8.1044087682498822e-01   8.0488652242447856e-01   8.2284287778343679e-01   8.1340008263845776e-01   8.1872633525833727e-01   8.1775927644953728e-01   8.4869482619488201e-01   8.2785811534430642e-01   7.4836342597237637e-01   7.7116033170910281e-01   7.9327954335374806e-01   7.7626392325238824e-01   7.6403343992689177e-01   7.8339075622223875e-01   8.3094632277940395e-01   8.3036025444391337e-01   8.3225851846754251e-01   8.2448949977389019e-01   8.1836447453826433e-01   8.1584957545407355e-01   8.0944020849076237e-01   8.6199214963824111e-01   8.0520573926003469e-01   7.7888865908240967e-01   7.7277673704183936e-01   8.4996341968265476e-01   7.9394705213103989e-01   8.1201255357983437e-01   7.3928342847078932e-01   7.6408039400524985e-01   8.2137786102597354e-01   7.3901558430313219e-01   7.6404171119873698e-01   8.3062577300018059e-01   8.3585819097368796e-01   8.2534283711798306e-01   8.3596579384681247e-01   8.1609721593958973e-01   8.1541658739059275e-01   8.0617281594855383e-01   8.1983329103076485e-01   8.1597214192104095e-01   7.7228954250092519e-01   8.6215719469348751e-01   8.5138703740626198e-01   8.4281833805386319e-01   8.2137191055695424e-01   7.8661448160036973e-01   8.0408279708047714e-01   8.5374833784741722e-01   8.2304142065979780e-01   8.3156025963906144e-01   7.8657170438386848e-01   8.2099045069896215e-01   8.6195201808224098e-01   8.2900592998220635e-01   8.1715636446073070e-01   8.2993831367488735e-01   8.2324885231974865e-01   8.5933093039401620e-01   8.3390925954108297e-01   8.5663128525646404e-01   7.9958728418592739e-01   7.9326350289112779e-01   8.7266754269695967e-01   8.4591545844316940e-01   8.0027918113990282e-01   8.0715247797581724e-01   7.9005676276640846e-01   8.1390149313391980e-01   8.0508943226770890e-01   7.9440775598048907e-01   8.2702736112180941e-01   8.7152556058527453e-01   7.8242872957938392e-01   7.8436446389075853e-01   8.1037320778352973e-01   7.9770316948030295e-01   8.1442350264872110e-01   7.8961970445367036e-01   7.9668279334893322e-01   7.9713026511319152e-01   7.8740260226467196e-01   8.4114984428018535e-01   8.1881261783503245e-01   8.5488119112354266e-01   8.3693318266173100e-01   8.4376307920745053e-01   8.4238735402160692e-01   7.9191942583657449e-01   8.1726468445074518e-01   7.5457647357169344e-01   7.6977063997016981e-01   8.0413858988169895e-01   8.0442467669472684e-01   8.3223936182682168e-01   8.0481783862077449e-01   8.1563229742674259e-01   7.4878425409911986e-01   7.7835035529801078e-01   8.3008339093714956e-01   8.5881981912526162e-01   8.4325764823188520e-01   8.7169771951942387e-01   7.9175176696860339e-01   7.8228150996645518e-01   7.8302561824767214e-01   7.9391419428501731e-01   8.5579879821707161e-01   8.2415239923920380e-01   8.1593727895205947e-01   8.2062038533183845e-01   8.1698835870638409e-01   8.1705197160776266e-01   8.2764417243345778e-01   8.1684077693025203e-01   8.1633976586166679e-01   8.0262958930657180e-01   8.0316764919271155e-01   7.9854384684025514e-01   8.0849654366639911e-01   8.1118957147638504e-01   8.0783306336403993e-01   8.0715949782708607e-01   8.1732528751263434e-01   8.0833244208568233e-01   8.1154875888570233e-01   8.6666374533403057e-01   8.3458464887107042e-01   8.6763162444264930e-01   8.5159360060542766e-01   8.0499964992266981e-01   7.9323120851793472e-01   8.2707937149582966e-01   8.2172190615679475e-01   8.0932923095778164e-01   8.0625229986018232e-01   8.0931376890044482e-01   8.0083660748742969e-01   7.8872488948975672e-01   8.0710648305399535e-01   8.0540676198154593e-01   8.0042507326379042e-01   7.8731590960934450e-01   7.7170024970860818e-01   8.0437228592298149e-01   8.1823176575326972e-01   8.1373518782191612e-01   8.0464432268560182e-01   7.9127776846870512e-01   8.0234231039224924e-01   8.8687524648456084e-01   7.6408130967244381e-01   7.6397312801156858e-01   8.0260052858266206e-01   8.5405799561872398e-01   8.0533133561740100e-01   8.1244696289347684e-01   8.2286394369681259e-01   8.4873810371003844e-01   8.2949543867324849e-01   8.6097273646979200e-01   8.0252731913195041e-01   8.0885939799588591e-01   7.8946590722763199e-01   7.8873263658481163e-01   8.7149258935342933e-01   8.4027203558762698e-01   8.0245462103262954e-01   8.1706339554174234e-01   8.0707147089426934e-01   7.8262208925412702e-01   7.8445898453939999e-01   8.0567700437123657e-01   8.1328043432804198e-01   7.9387340636723269e-01   7.8421132557059148e-01   8.2010946999566725e-01   8.0374807236922963e-01   8.66154167267051