<?xml version="1.0"?>
<VTKFile type="UnstructuredGrid"  version="0.1"  >
<UnstructuredGrid>
<Piece  NumberOfPoints="1109" NumberOfCells="1972">
<Points>
<DataArray  type="Float64"  NumberOfComponents="3"  format="ascii">1.328679721520367e-18 1 0  2.013934848627094e-18 2.409388388674524e-18 0  1 1.556264846404118e-18 0  1 1 0  0.8456996306507136 0.5401598970328133 0  0.8497797393490829 0.4999747980550726 0  0.8457575161605209 0.4598098830313807 0  0.834242058918603 0.4216292001958214 0  0.8160067438581561 0.3866139199162759 0  0.7917863582996832 0.3542581056052656 0  0.7622416478587117 0.3219877014629586 0  0.7289958337720283 0.2882809964443511 0  0.6946369316488242 0.2540489167446133 0  0.6616832233942342 0.2223549716993407 0  0.6297107430344829 0.1953706491536353 0  0.5962013411874472 0.1740829977867968 0  0.5595569426274346 0.159064076952895 0  0.5201452660812923 0.1513187126594393 0  0.4798821362375164 0.1512903660707119 0  0.4404408944465861 0.159065422360573 0  0.4037937449962754 0.1740657561899 0  0.3702052072651518 0.1954338860829639 0  0.3383364534695297 0.2223449567982091 0  0.3053936947679818 0.2539836050656502 0  0.2709914716314945 0.2882456831156995 0  0.2376313470631259 0.3220215660340322 0  0.208241623969776 0.3543615971956333 0  0.1840465456212554 0.3866770526000455 0  0.165737928835955 0.4215765273372752 0  0.1542690646736594 0.4598705955474541 0  0.1502486817066574 0.4999131772719623 0  0.1541750187777125 0.5401356009272885 0  0.1657411338166756 0.5783551694544873 0  0.1839748021891336 0.6133491684576136 0  0.2081899033339775 0.6457507863158453 0  0.2377639759497976 0.6780658830456422 0  0.2707281448435027 0.7119530855338937 0  0.3051175988695183 0.7459813292851717 0  0.3383896406311673 0.7776475547241823 0  0.3702382070054818 0.8046473799346495 0  0.4038219311944544 0.8258952601372068 0  0.4404530456338066 0.8408710349382638 0  0.479853511105465 0.8486902358762096 0  0.520124438433376 0.8487290580386394 0  0.5595631048056765 0.84094330402537 0  0.5962677768198529 0.8258981178562984 0  0.6297531866523329 0.8045958608172716 0  0.6617357794410205 0.7778021849609965 0  0.694866543456 0.7460903263757483 0  0.7289798872910437 0.7119298351889114 0  0.7624325126139718 0.6781307098718644 0  0.7918666516199049 0.6457451556214547 0  0.8160413752501916 0.6133481602953575 0  0.8342407831155574 0.5783648446332357 0  4.119083403323398e-18 0.5 0  1 0.5 0  0.5 5.774879802696605e-18 0  0.5 1 0  5.126887865024288e-18 0.75 0  2.098786021756344e-18 0.25 0  1 0.25 0  1 0.75 0  0.75 2.603509601843815e-18 0  0.25 3.917335052674216e-18 0  0.25 1 0  0.75 1 0  5.558265037347669e-18 0.625 0  4.980668423407503e-18 0.375 0  1 0.375 0  1 0.625 0  0.625 6.96381587612493e-18 0  0.375 4.95255882369753e-18 0  0.375 1 0  0.625 1 0  0.125 9.718751620578949e-19 0  0.875 2.94524042275897e-18 0  1 0.125 0  1.49743510191964e-18 0.875 0  0.125 1 0  0.875 1 0  2.371800711635683e-18 0.125 0  1 0.875 0  0.1741652338436073 0.1504810822684259 0  0.8258068857423033 0.8493975864212671 0  0.8258651654000637 0.150447822450529 0  0.1555372727993526 0.8444013116946768 0  0.9045416967503922 0.2105961771720782 0  0.120908061751365 0.2374763156923567 0  0.8790728905112074 0.762644694566868 0  0.1199358610239023 0.7312358933087659 0  0.2477006588099326 0.8787456866363204 0  0.08277846890410899 0.08279727179454126 0  1 0.0625 0  0.9375 3.161491853970185e-18 0  0.0625 1 0  2.971392449434283e-18 0.9375 0  0.9171590700727043 0.9172324638892599 0  0.7043531869257683 0.1100280507621235 0  0.2957150086751363 0.1100707075537353 0  0.7407671801678376 0.8812311203007767 0  1 0.6875 0  1 0.3125 0  0.09407431074563519 0.3176169016851537 0  6.991490316430928e-18 0.6875 0  0.1875 2.935467196587933e-18 0  0.8125 4.227214665057754e-18 0  0.8927959629985611 0.2936697648777214 0  0.6875 1 0  0.3125 1 0  0.9085075037791528 0.09148874344525956 0  0.8983845686982997 0.6916355246375177 0  3.687551322218562e-18 0.8125 0  0.08714629661960836 0.9128380792020303 0  0.07989881300107624 0.8251307082894235 0  0.8135408961630164 0.2341332279220703 0  0.6519020287916766 0.9038727381401889 0  0.3141718415316799 0.8995436943412934 0  0.9035084398665326 0.8389424428539047 0  0.09656391403187861 0.16088756447825 0  0.8125 1 0  0.08617543668135096 0.6403375473294024 0  0.9098410592838655 0.3511871356321044 0  0.2282386771281753 0.792150524053733 0  0.6462100657153506 0.0854348879223305 0  0.3125 4.488628226845077e-18 0  0.359569846454438 0.08563142838682851 0  0.2545023828848689 0.1664736932948584 0  0.7796040388392067 0.09348333041744097 0  0.1731737995081255 0.9201436307542443 0  0.5625 1 0  0.4375 5.644517175452115e-18 0  0.4375 1 0  0.5625 7.776420686628656e-18 0  0.2054941777237121 0.08679166134717198 0  0.9096170712167717 0.6265111280559006 0  0.7504430778446043 0.1781522100939025 0  0.8093093050217099 0.9198975480009528 0  1 0.4375 0  4.086089860169258e-18 0.4375 0  1 0.5625 0  9.261915795323917e-18 0.5625 0  9.647390893970178e-18 0.3125 0  1 0.8125 0  0.0625 1.953950235258852e-18 0  3.574805187698107e-18 0.0625 0  3.594113400744383e-18 0.1875 0  1 0.1875 0  1 0.9375 0  0.9375 1 0  0.6875 6.053944551815859e-18 0  0.1875 1 0  0.7670673007214618 0.7873494277371373 0  0.1979366653600876 0.2296425881833246 0  0.8463682977364033 0.07526548297779237 0  0.1888468606443582 0.7448469485892831 0  0.3688826997047059 0.9140782659456397 0  0.9192274939976287 0.4236972449070143 0  0.08080816350521794 0.5763845643877926 0  0.07627322874092506 0.4151235933638256 0  0.5852137900854339 0.07413237952028146 0  0.5995913514396546 0.9144232234619027 0  0.411604851193725 0.07668062577601668 0  0.07203761066658962 0.6980607570624661 0  0.9278168921084106 0.5283776090880921 0  0.07218582650035305 0.4715823686108214 0  0.1541387250683659 0.2986472929168074 0  0.1451141742816561 0.08287642589455277 0  0.9261770865178307 0.5793557594345864 0  0.6824551837567814 0.8538931049230913 0  0.711675421628022 0.9294494725337519 0  0.07188870577754117 0.36289000011875 0  0.9285833483497258 0.1478810148341936 0  0.4190839255047707 0.9249768931382107 0  0.5362021600893153 0.07264746681118237 0  0.4713657364000379 0.06792058559345235 0  0.4682819557065283 0.9301303745685667 0  0.5286175603284811 0.9320682291542201 0  0.836401701732468 0.7050229179907149 0  0.8076670075838333 0.7492649633956916 0  0.05530544765987441 0.7671507170009095 0  0.7166930981996078 0.8131961246896519 0  0.2755187693226094 0.812151891630332 0  0.054854485932125 0.2327112693292718 0  0.9324539357881472 0.7443786515277745 0  0.9256267902099556 0.4746889112203568 0  0.07439637566932931 0.5253457485457683 0  0.8594270008710154 0.907251218739542 0  0.8305386006208992 0.2841572745974006 0  0.1369717388031852 0.6614948218996319 0  0.7677373217473313 0.9471474876523038 0  0.1285361704235514 0.7793211642423954 0  0.2030825666727485 0.8618431036818387 0  0.2324724859045225 0.9461581919746602 0  0.8492230029676151 0.800941504886582 0  0.870563062263509 0.1755510729632417 0  0.9386032150225064 0.2451546718569156 0  0.9358072238976072 0.8020058511178542 0  0.2470948463165442 0.06292415781024335 0  0.3091762235258247 0.8413969321319719 0  0.7724087637632937 0.8462588515435678 0  0.7074742440673981 0.04828027702583411 0  0.2925175274990351 0.04827332547831786 0  0.7497000070019951 0.05931436710451467 0  0.8931177562553453 0.04445772157163214 0  0.0431930268395371 0.167022893872393 0  0.1494521135155163 0.1905825829087112 0  0.9426094979552307 0.3069449778500268 0  0.1671064784144566 0.6897408285855899 0  0.9601527729386556 0.1019742278419415 0  0.2512484756647694 0.2320001226834256 0  0.05596027914857583 0.8759079246310878 0  0.1019548754376052 0.9599615525187829 0  0.1664442424667072 0.04098798957245892 0  0.8535588688619592 0.3453449914335934 0  0.7481531427599249 0.2326984817205183 0  0.1055805544501701 0.04198050001932602 0  0.0389643454770583 0.1017190812490419 0  0.8911761618824268 0.9554073655515418 0  0.9611105390108468 0.8983145837236133 0  0.1218117791467087 0.1233396988449337 0  0.9561513885671387 0.9561609956712495 0  2.230093254362278e-18 0.03125 0  0.03125 1.983075777625715e-18 0  0.04700423286706167 0.953033014634061 0  0.9498427561063325 0.05014901518872528 0  0.8687101591135015 0.647927016374179 0  0.1727630093979562 0.7941873163355804 0  0.1744706824313086 0.2642907245348013 0  0.09509643193768799 0.2754763296310651 0  0.28125 1 0  0.2755110592181803 0.9437815909916264 0  0.1057572187905236 0.8580167689605878 0  0.6592926914936301 0.1356028232912402 0  0.7045025332558471 0.1697487210893676 0  0.3418798407303137 0.1328524490100094 0  0.3007618014944779 0.1688184729006899 0  0.8902115575932619 0.3928261201638679 0  0.7897650132960939 0.1930718762234505 0  2.673359384400974e-18 0.28125 0  0.1509726817480749 0.3362057890309982 0  0.6366327941340972 0.9488850544472679 0  0.2131869531702719 0.1895867148780347 0  0.8831382694543978 0.2556113595983884 0  0.955523228939592 0.7126362594182797 0  0.935660293212996 0.6685167078457099 0  0.3681042952098756 0.8591476706782075 0  0.2482664777639515 0.1142630342291994 0  0.04653967262888432 0.04651439470540618 0  0.5608580939116864 0.903974455048668 0  0.1309298862073587 0.9167709045865127 0  0.1280527908583693 0.3873517130489132 0  0.9528021209666033 0.1800336219363489 0  0.8726353298986543 0.1292849101784264 0  0.7383612894023089 0.1242030721060071 0  0.9517818625621144 0.8561018300857605 0  0.84375 3.804339878103036e-18 0  0.8152247492050243 0.0496462092778906 0  0.4988686283108531 0.8972129624403202 0  0.4999990273218973 0.1048040728233142 0  0.8873605098862161 0.876934483692091 0  0.7794056355084016 0.2766965829756668 0  0.07877568460137817 0.2041029895837309 0  0.84375 1 0  0.8489143665649185 0.9530278482522726 0  0.1118337022114349 0.6026070437722124 0  0.05577006716405092 0.6159807887147155 0  0.4032916803666751 0.8809157514899685 0  0.59375 1 0  0.05136718928258638 0.2847964213249005 0  1 0.34375 0  0.9453923775827251 0.3727535078316644 0  0.2228890951585741 0.2729765618996886 0  0.31028944062798
[...]
<CellData  Scalars="dens"> 
<DataArray  type="Float64"  Name="dens"  format="ascii">8.1955912037271483e-01   7.5513360110125127e-01   7.5122395986199342e-01   7.5143520361174765e-01   7.4405823700740636e-01   7.1670420241653499e-01   7.5776297938293324e-01   7.8042336368957455e-01   7.6937767939101331e-01   7.2878219711646419e-01   7.4640076141620904e-01   7.9913323516627555e-01   7.5617586591209318e-01   7.1978853218644023e-01   7.8506380359766958e-01   7.6595842891506571e-01   7.5569131456130112e-01   7.2293009513568540e-01   8.1792325454123505e-01   7.8292847895647755e-01   7.6898392167663343e-01   7.5917339607799672e-01   7.2596937945262108e-01   7.8773328234984785e-01   7.6750058844990754e-01   8.1518819740740533e-01   7.6246620254740405e-01   7.6961375938781262e-01   7.7413326965281215e-01   7.5611153813167287e-01   7.2288667057307032e-01   7.6882762524069836e-01   7.8333404972952414e-01   7.5394210321874167e-01   7.2932368287760174e-01   7.9483532890120367e-01   7.3843381793090168e-01   7.2835297353961637e-01   8.2228294241579680e-01   7.6663479697748449e-01   7.7262717029628147e-01   8.1297512846734588e-01   7.3661504519405219e-01   7.3572794704334854e-01   7.5995037417882350e-01   7.3528635092757400e-01   7.4149889156879889e-01   7.1613711287844761e-01   7.6998601830009661e-01   7.5934988775498691e-01   7.6737835141248301e-01   7.4286822804085562e-01   7.4624333607854587e-01   7.7217971139752262e-01   7.6376670332578134e-01   7.6460540178770797e-01   7.7136385500592719e-01   7.2496286970874924e-01   7.5733151089219386e-01   8.2685358929070241e-01   8.0982193151379123e-01   7.6195549466057610e-01   7.5048246316738532e-01   7.6760473050181666e-01   8.1086831933271175e-01   7.3298810554544236e-01   7.9046035401468773e-01   8.5824770707439579e-01   7.5704360738354270e-01   8.0025878033313258e-01   7.7120176069142843e-01   7.7207714609008604e-01   8.0403109121390981e-01   7.5525614763531812e-01   7.7062475225067151e-01   7.6787166645332272e-01   7.7493977267460912e-01   7.5941551631080317e-01   7.5165654012243621e-01   7.5848506069279165e-01   7.3577896705789880e-01   7.7249190840759163e-01   7.5059113356600737e-01   7.7323698851442157e-01   7.6774503355816714e-01   7.4873582763434943e-01   7.5910251025929831e-01   7.6894489229846508e-01   7.6954806464375991e-01   7.5197280475653838e-01   8.4261753381573412e-01   7.5258935063070342e-01   7.6757650643901854e-01   7.4479495621173097e-01   7.4884604348848216e-01   7.8957365215041331e-01   7.8135353496996829e-01   7.4509502382776505e-01   7.9022167687617173e-01   7.3795829706075566e-01   7.7891299542569103e-01   7.6356149853689925e-01   7.4967295212563156e-01   7.5825179068319382e-01   7.8673227878255059e-01   7.9353820612605419e-01   8.0570538840639006e-01   7.3252430331402707e-01   7.1644338680243247e-01   7.8162636987413914e-01   7.5927442691707436e-01   8.5604990584471885e-01   7.7610784635821439e-01   7.1868279920261091e-01   7.3268844177836590e-01   7.4485752187690646e-01   7.8722212072646724e-01   7.6267130926988091e-01   7.3432724356465029e-01   7.2226793421248048e-01   7.6337531324873353e-01   7.3536027089100064e-01   7.3870827427607244e-01   7.3712690502617928e-01   7.5585881650712139e-01   7.5414265135875180e-01   7.4897958601360803e-01   7.5884325347717452e-01   7.3194096395721342e-01   7.1974054944771848e-01   7.5718154987897601e-01   8.4016204404198391e-01   7.2966919262779761e-01   7.3901648412993026e-01   7.7823385695545078e-01   7.6972644780761268e-01   8.0523602321381293e-01   7.7506220062332176e-01   7.6524671983642900e-01   7.6894585111679348e-01   7.6633843829394044e-01   7.7766906425886229e-01   6.9057226921318204e-01   7.6006785521783704e-01   7.1803987228278676e-01   7.2178672319298076e-01   7.3512741545223259e-01   7.8943866376701588e-01   7.3433438603772982e-01   7.4172508963004213e-01   7.6007508965351711e-01   7.1382115638787935e-01   7.3251838099834488e-01   7.1425371446415442e-01   7.5245341385522169e-01   7.4072958602433969e-01   7.5095321142998817e-01   7.9379573825908256e-01   7.5377820149723906e-01   7.3789024088293831e-01   7.2359853858646617e-01   6.8225341463385225e-01   7.5834029665191971e-01   7.1024736112547460e-01   7.0412300485918544e-01   7.4613980406924663e-01   7.6531129556122623e-01   7.4451547326342271e-01   7.0295654187249634e-01   7.2299405125859695e-01   7.6901869952305535e-01   7.2420154859480868e-01   7.4370120430127529e-01   7.5455764188398333e-01   7.5406599323434453e-01   7.9735613363678326e-01   7.5377650305049881e-01   7.4034972152379219e-01   7.4841284236835870e-01   7.5274003200168482e-01   7.6537033212826200e-01   7.3715576414887363e-01   7.2146282619760982e-01   7.4419309106582254e-01   7.2065975075087496e-01   7.4072162243629569e-01   7.5634444775102927e-01   7.6235720909144900e-01   7.5968080063267940e-01   7.5465361667632036e-01   7.6009277664974173e-01   7.5079709680104489e-01   7.6042330105158362e-01   6.9956099052358522e-01   7.5433782719030462e-01   7.2158058903280220e-01   7.8098903040499656e-01   7.4045339893415196e-01   7.6331759484703143e-01   8.2033464756122487e-01   7.4670038600017574e-01   7.5775405182850886e-01   7.7332113653021783e-01   7.4286028228000778e-01   7.5439571796846894e-01   7.5724554131801591e-01   7.6052470311941023e-01   7.5443501408387004e-01   7.4997892574962122e-01   7.5549532139205033e-01   7.3365478511068483e-01   7.3057667847963537e-01   7.7167803007284852e-01   7.6237297128696058e-01   7.5923694211624226e-01   7.6068400705988437e-01   7.8711395107109061e-01   8.3739599987133018e-01   7.5735626984034443e-01   7.4034685218611274e-01   7.6417827217545087e-01   7.6296967703132257e-01   7.5798855876778004e-01   7.5973758561417493e-01   7.6010336304222292e-01   7.5506341013179168e-01   7.9527980077891258e-01   7.7582762604971822e-01   7.4791290773998509e-01   7.4913158810513480e-01   7.4779207715343565e-01   8.4292514891538350e-01   7.6376495364516483e-01   7.5807510070211626e-01   7.9185993335320792e-01   7.2544103796764881e-01   7.2736930315952320e-01   8.1430182766264181e-01   8.1198124925388071e-01   7.5872495533717432e-01   7.9420492173711466e-01   7.8093052332724089e-01   7.8048980340381291e-01   7.0952785628866233e-01   7.3976707329547720e-01   7.7919449207608793e-01   7.6931638701370508e-01   7.7170737363088138e-01   7.9788522929944916e-01   8.6688128782425655e-01   7.6937069483324216e-01   7.6480116050043567e-01   7.7920542907488755e-01   7.9378567052368121e-01   8.3511371788528077e-01   8.6360729980330253e-01   8.1943116519400994e-01   8.1482249907573834e-01   8.4622616475362111e-01   7.8639809271107597e-01   7.2683442969946099e-01   7.2799535526163672e-01   7.2434632907790808e-01   7.4759245073532210e-01   7.6247073829346601e-01   7.6028100787098241e-01   7.8353475230112535e-01   7.2225531668150167e-01   7.6015494879339174e-01   7.3963990352113518e-01   7.4254619202112271e-01   7.6274599209983729e-01   8.0202193999766869e-01   7.5954226177909367e-01   7.7467376645378005e-01   7.3007780185466076e-01   7.8004201912987459e-01   8.5588680077503254e-01   7.7766135199769593e-01   7.3209034319494393e-01   7.2947079582960195e-01   7.0843517788142030e-01   7.3081207900357792e-01   8.1254898823088462e-01   7.7597631875314732e-01   7.4152205192725040e-01   7.3117179367648377e-01   7.4740775449477459e-01   7.5072186088409731e-01   7.5073571892546009e-01   7.2534905744838296e-01   8.0596693908976103e-01   7.5115436425783577e-01   7.5988707968860136e-01   8.2517753115386916e-01   8.4279610534542793e-01   7.9388538256973828e-01   7.4543498201972902e-01   7.5521958040086323e-01   8.1751694147318321e-01   7.6524448800696887e-01   7.5932852517001381e-01   7.4804537602361765e-01   7.6873265096977961e-01   7.6026089441914635e-01   7.6349290939350245e-01   8.0745020277261559e-01   7.7237411553360735e-01   7.6192282921950238e-01   7.7796562944562886e-01   7.6482323898897298e-01   7.6743215754042127e-01   7.6127295184854737e-01   7.5616887454302562e-01   7.5841231289874833e-01   7.5838177842232324e-01   7.8516960572135908e-01   7.8078151491733050e-01   7.4588337973069674e-01   7.6838309354152967e-01   7.8344500007110474e-01   8.1367413207118233e-01   7.6020720545150566e-01   7.7541247202938079e-01   7.8512975302639587e-01   7.3412125065107192e-01   7.8288004558356461e-01   8.1688806171470341e-01   7.1724898079386490e-01   7.1864392149339518e-01   7.5275063913079221e-01   7.7264066198791759e-01   7.8644268811596041e-01   7.1090347302599988e-01   7.2920104944155706e-01   7.3335419402761892e-01   7.1537630479970160e-01   7.2749596647373305e-01   7.2225055000218963e-01   7.4002272576040606e-01   7.5954449113457689e-01   7.5790010369085237e-01   7.6054678463073777e-01   7.5249245102877416e-01   8.5794061213272066e-01   8.1129203753755608e-01   7.3491042446219446e-01   8.1596298273905421e-01   7.2197031880155826e-01   7.4640792263773181e-01   7.6653682733882933e-01   7.5562595732508253e-01   7.3581623362320003e-01   7.4128401184067683e-01   7.1604601764730880e-01   7.7875223323199994e-01   7.6289218383735069e-01   7.4372563515806567e-01   7.6302802799531133e-01   7.3904630281588046e-01   7.9489754272120228e-01   7.5230143357891122e-01   7.4663177585838603e-01   7.9236111223018257e-01   7.9304150388620831e-01   8.1628655580494003e-01   7.8051846909855949e-01   7.9710724544856992e-01   7.7761835766222143e-01   7.3995053464400584e-01   7.5203418426259405e-01   7.8322368452314006e-01   7.4996304920317691e-01   7.1306137514343282e-01   7.1796618655246347e-01   7.4353037500781682e-01   7.6533320297455976e-01   7.8477036272069878e-01   8.0275609342158638e-01   8.5415661148466804e-01   7.8210556732576375e-01   7.8280069625375104e-01   8.1455286715234554e-01   7.4055240641487075e-01   7.4072598424260794e-01   8.1673807951595478e-01   7.8648021189353878e-01   7.0268161616025238e-01   6.7646668857535774e-01   7.9696688196365861e-01   8.2677991792315075e-01   8.1044314279668694e-01   7.2995053290140477e-01   7.1650421223060479e-01   7.0550983559193914e-01   7.8184081963198970e-01   7.4111675394046239e-01   7.5975978930762156e-01   7.4196324860432028e-01   7.5688167287739527e-01   7.3088875523324703e-01   7.4771225717942336e-01   7.5530223559841214e-01   7.5478964307060803e-01   7.5002248867576315e-01   7.6474950490780957e-01   7.6232845221136258e-01   7.6357639529689736e-01   7.3140030047708493e-01   7.1084697826059939e-01   6.7564613485242642e-01   6.7607529314254411e-01   7.4663812671814211e-01   7.4502729866049167e-01   8.4509437765436879e-01   8.0683109389924956e-01   7.3628365095670845e-01   6.9972042977467408e-01   7.3057993780278729e-01   7.1271353370360579e-01   7.5421916721543181e-01   7.4176927987878505e-01   7.7845423196052266e-01   8.2141577279118450e-01   6.8807500355895268e-01   7.4859327307036339e-01   7.1987346668189189e-01   7.7012946469690835e-01   7.7385854841802393e-01   7.5624298499148368e-01   7.3555080204938428e-01   7.4348442555429495e-01   7.4185802525087396e-01   7.6580862817028073e-01   7.2073969682264960e-01   7.3762008723547390e-01   6.9128765167897976e-01   8.1752751780504884e-01   7.2948702595390436e-01   7.3185771229312735e-01   7.5756970932408707e-01   7.6457298699860110e-01   7.7065827157833411e-01   7.6639289845416836e-01   8.1495107357538410e-01   6.7675516498004007e-01   7.9946382788612902e-01   7.5869715248014102e-01   7.3984254670149929e-01   7.9699013071026015e-01   7.8099795961024387e-01   7.7660785790772335e-01   7.7858964619379145e-01   7.1775661869491258e-01   7.2107569120300208e-01   7.2031835937136557e-01   7.3097880268963922e-01   7.2800311530359618e-01   7.3876653585603846e-01   7.2949392988010753e-01   7.7487736664107598e-01   7.7219505531929089e-01   7.4828279340163628e-01   7.5192135466202725e-01   7.3827030193556487e-01   7.1693651514935997e-01   7.3225619416779686e-01   7.3091565946517689e-01   7.8521872093678591e-01   7.8518615121248136e-01   7.6580568365306823e-01   7.3672858043748279e-01   7.2359143561357508e-01   7.4192940385794282e-01   7.5815245709087631e-01   7.4596922543206667e-01   7.5960722605438269e-01   7.6114342717966410e-01   6.9834891396003096e-01   7.1154145742845354e-01   6.8306885596915845e-01   8.5623735174088311e-01   7.8836375686237403e-01   8.5867026743659747e-01   7.4095711167165734e-01   7.2357292335819612e-01   7.4963087597857592e-01   7.4819777235571039e-01   7.7940796262712519e-01   7.7110895245687694e-01   7.5576917990722325e-01   7.5234267554545931e-01   7.5218477526185334e-01   7.4893920476511477e-01   7.7973471202914491e-01   7.3665561589889350e-01   7.7929656834337080e-01   7.6299274133562134e-01   7.4902400165979643e-01   7.5757849643515685e-01   7.5308237862543415e-01   7.3569888235113612e-01   7.4965238555603475e-01   7.8073395605958673e-01   7.7457096539910852e-01   7.8309698419762619e-01   7.6277047041771651e-01   6.9034280204356346e-01   7.2938891645060189e-01   7.4072812337813054e-01   7.1405547205870035e-01   7.6806437864498878e-01   8.1829174357488088e-01   8.0434092994794992e-01   7.9102699810871857e-01   7.6397399080423900e-01   7.3990458856882180e-01   7.5581150619075055e-01   7.5469365650419318e-01   7.1108031152407891e-01   7.3612871875707986e-01   7.5153948297999240e-01   7.5617744726532432e-01   7.4501974825626227e-01   7.1334187862965703e-01   6.7545952625756245e-01   7.4871526676536049e-01   7.5328026837595807e-01   7.1621664000270036e-01   7.3914582858894662e-01   7.2340260171879311e-01   7.2851543615470282e-01   7.3204889271693407e-01   7.2995998783114890e-01   7.7460081675818171e-01   7.9127952735472395e-01   7.5730374554881619e-01   7.8394417694045859e-01   7.9409059121747150e-01   7.5987574451179962e-01   7.6052963622766490e-01   7.7080655266315634e-01   7.1927970238748229e-01   7.1055197728825636e-01   8.1019215967557923e-01   8.0763151745757156e-01   8.0522715844256543e-01   8.4316908031580950e-01   8.4080729573580948e-01   8.6414542912571191e-01   8.0493344913195497e-01   8.1325807464782363e-01   7.8681536065208457e-01   8.3128737530460550e-01   7.7127153572090645e-01   7.9698396976844044e-01   8.0720474842483902e-01   7.9355851677486533e-01   7.8879596570255717e-01   8.1100251590072481e-01   8.0771614131771585e-01   8.1582814772691736e-01   7.2190213444370788e-01   7.0965021480153523e-01   7.4850402140363081e-01   7.5192201649049406e-01   7.6213387579842562e-01   7.4073780640742759e-01   7.7682352532879373e-01   7.6356379510837813e-01   7.3305912019409036e-01   7.1273602743461317e-01   8.0728332768797917e-01   8.1423142610923227e-01   7.8007210735828425e-01   7.6684823856628781e-01   7.6205471837263650e-01   7.4919703103659752e-01   7.5758071423159146e-01   7.7102563174192462e-01   6.9853900227437637e-01   7.1526362451779324e-01   7.1381815058828635e-01   7.2259898633158148e-01   6.8265346947951355e-01   6.7664276588460337e-01   6.9886149941380371e-01   7.3178430643473724e-01   7.3329941100729490e-01   7.1356547162344652e-01   7.3650581852379327e-01   7.1345489944993767e-01   6.8374061150052634e-01   7.1078359610163389e-01   7.2464144128813079e-01   7.0893005023383648e-01   7.9139593161886057e-01   8.2747073282909811e-01   8.1079569036297372e-01   8.2858800469110250e-01   8.4822132026829433e-01   8.2373853959423615e-01   9.0500638478180395e-01   9.0468130323810314e-01   8.6745936402250867e-01   8.4464651960948933e-01   7.4186219250396723e-01   7.1171747013467723e-01   7.7788312921066649e-01   7.9531282255326918e-01   7.6072260566867134e-01   7.6454563230090644e-01   7.2807254760802875e-01   7.7611603854656186e-01   7.8620858760168189e-01   7.8852738121637300e-01   8.3637505348826924e-01   7.5867226255005038e-01   7.5226221278370975e-01   7.6210634776252217e-01   7.5332678998153169e-01   7.6365609087661701e-01   7.6488307596745209e-01   7.9691082364022292e-01   7.6817811008219417e-01   6.8413903991689207e-01   7.1211037460342574e-01   7.4213947242317202e-01   7.1819160084053457e-01   7.0300920743044903e-01   7.2683624125966040e-01   7.9367363670705271e-01   7.9238219350277694e-01   7.7431100884012072e-01   7.6422063719834643e-01   7.5682104682616347e-01   7.5360225428984196e-01   7.6386748982320329e-01   8.3208854922496400e-01   7.5720160029734185e-01   7.2065067275625461e-01   7.1598584571263002e-01   8.1848352654153755e-01   7.4159544583391568e-01   7.6989219247609497e-01   6.7530789813301983e-01   7.0495161528232975e-01   7.7938315914110967e-01   6.7506537534103017e-01   7.0464164091024895e-01   7.9186724271536424e-01   7.9981934475500027e-01   7.9316925606850808e-01   8.1438608407491175e-01   7.7959103329396862e-01   7.6299123663249280e-01   7.5233143077720588e-01   7.8372438789948651e-01   7.7397999519347405e-01   7.1316473853550233e-01   8.3800860902490104e-01   8.1738771417458134e-01   8.0752223527332645e-01   7.8296063992535048e-01   7.3543837798027800e-01   7.5496006687789774e-01   8.2029363707433522e-01   7.8037966971642969e-01   7.9349797977237579e-01   7.3592620993805935e-01   7.8278413854775575e-01   8.3656469498451547e-01   7.7414494710355219e-01   7.5984950585505839e-01   7.9139477953974902e-01   7.8431351733299781e-01   8.3382256066594174e-01   8.1327516222385077e-01   8.4678431190350367e-01   7.4809364530540479e-01   7.3986569968861338e-01   8.6081770405127767e-01   8.2172013145364675e-01   7.3685685598360517e-01   7.4528537286630303e-01   7.3098295806416547e-01   7.7071292422202353e-01   7.6623089667362088e-01   7.4526342057134998e-01   7.9557879066197401e-01   8.5181172463681387e-01   7.2414237943734749e-01   7.2868282880171820e-01   7.6608232135848986e-01   7.4300623680720557e-01   7.7822873703042317e-01   7.3084336921736781e-01   7.4018048973846595e-01   7.3740386575093253e-01   7.2554103239137901e-01   7.9234985660926160e-01   7.6687661338436830e-01   8.0588924768129200e-01   7.8538231225258526e-01   7.9576862815111227e-01   7.9216825563048832e-01   7.4166137962772993e-01   7.7427069888963707e-01   6.9301268501857238e-01   7.1116605929083321e-01   7.5205863349072055e-01   7.5749181297885215e-01   8.0977154994370115e-01   7.5707969733959724e-01   7.7314570393795468e-01   6.8462558663809303e-01   7.2230763159087352e-01   7.9279503229963888e-01   8.3324832396901394e-01   8.1385323691579436e-01   8.5459318018591701e-01   7.4077158674080001e-01   7.2757825850122149e-01   7.1570418836358307e-01   7.3058470367135375e-01   8.0521654471701021e-01   7.6516666940578115e-01   7.7161123762793993e-01   7.8006737793433789e-01   7.7536372087253536e-01   7.7394980194428653e-01   7.7519448194458396e-01   7.6406497454662459e-01   7.7844973934635420e-01   7.6274597319753445e-01   7.4466132941035079e-01   7.3951413382741982e-01   7.6357933938654332e-01   7.6893569175935128e-01   7.5381348141845050e-01   7.5795977639823353e-01   7.8225614671630650e-01   7.5700830685109555e-01   7.6119089434620091e-01   8.5735072998958783e-01   8.1579718451089711e-01   8.2173909427640690e-01   8.0157531969662121e-01   7.5609198608494044e-01   7.4257361288202350e-01   7.7515268280039606e-01   7.6995863151714805e-01   7.5735703701912760e-01   7.5146314663380409e-01   7.6030265710455924e-01   7.4762268618856098e-01   7.3067614586764951e-01   7.5756177688389925e-01   7.5705956052572243e-01   7.5194168941206219e-01   7.3359615931606725e-01   7.1215891180580615e-01   7.4689022094237589e-01   7.6345046026719443e-01   7.6820296711333380e-01   7.5893283597596417e-01   7.2408712979920598e-01   7.3760741222158910e-01   8.4781792944500511e-01   7.0449291226973809e-01   7.0361185952934713e-01   7.5538931441026846e-01   8.2157029536801929e-01   7.5135108790704297e-01   7.6124101307491232e-01   7.8014184114855289e-01   8.1572526416357083e-01   7.9152080252565848e-01   8.3822120706395609e-01   7.5176476711092544e-01   7.6084862124403585e-01   7.2386403731810411e-01   7.2775245734118932e-01   8.2876059204529018e-01   8.1530739763597271e-01   7.5484249446395935e-01   7.8240024886843473e-01   7.6238980018517966e-01   7.2393128929825190e-01   7.2142381673438338e-01   7.4968569297245580e-01   7.6096449603063820e-01   7.3639815051159374e-01   7.2138287449620975e-01   7.7728843682904536e-01   7.5576610524158916e-01   8.57960601675078