<?xml version="1.0"?>
<VTKFile type="UnstructuredGrid"  version="0.1"  >
<UnstructuredGrid>
<Piece  NumberOfPoints="1109" NumberOfCells="1972">
<Points>
<DataArray  type="Float64"  NumberOfComponents="3"  format="ascii">6.643398607601837e-19 1 0  9.529523382588752e-19 8.846646474603236e-19 0  1 7.781324232020592e-19 0  1 1 0  0.8679212383175019 0.5439054129068472 0  0.871476920730841 0.4999560639341313 0  0.8679840904440956 0.4561148683729295 0  0.8578610441504788 0.413360861606011 0  0.8415382236795107 0.3723475745118817 0  0.8192744696381808 0.3329859972288625 0  0.7915399024152313 0.2948064002186112 0  0.7592748607255572 0.2582120379735476 0  0.7237059627554918 0.2240937930744635 0  0.6862263625057929 0.1939457353651089 0  0.6474671977468569 0.1688615632936446 0  0.6073104195894775 0.1495349922780652 0  0.5653819110040127 0.1362379296213044 0  0.5219590410067769 0.1294775217853589 0  0.4780305331279951 0.1294495075523311 0  0.4345876797920376 0.1362363632558516 0  0.3926748364185085 0.1495273346785066 0  0.3524815038841652 0.1689090949315553 0  0.3137742859319679 0.1939343549322362 0  0.2763158519987712 0.2240629057814306 0  0.2407166166311947 0.2581991313927055 0  0.2083981575161611 0.2948522978548467 0  0.1807492891476369 0.3330350293607539 0  0.1585030206740453 0.3724139069337511 0  0.1421134415140143 0.4133228666718158 0  0.1320432177415083 0.4561399531666981 0  0.1285509020445974 0.4999244433350488 0  0.131968306082255 0.5438571279329056 0  0.1421239823068437 0.586657436296258 0  0.158452551751926 0.6276175657724633 0  0.1807093018988623 0.6670274110021293 0  0.2084602552812228 0.7052102653836874 0  0.2406055936592559 0.7418799453323893 0  0.2761907017395805 0.7759276099650634 0  0.3138181082654043 0.8060531072323847 0  0.352521070875285 0.8311488621737106 0  0.3927028834098492 0.850453345499143 0  0.4346050563900464 0.863703707327833 0  0.4780068847927206 0.8705293312339824 0  0.5219358906693231 0.8705592819463001 0  0.5654073941697374 0.8637624117420755 0  0.6073720367163604 0.8504481843223806 0  0.6475102651711688 0.8311208121294016 0  0.6862079000476192 0.8061490260398194 0  0.7237936750668107 0.7759799234648994 0  0.7592595330402089 0.741873641968448 0  0.791640881946962 0.7052227387694882 0  0.8193180998736826 0.6670119704317841 0  0.8415545236765157 0.6276459194287274 0  0.8578766846779478 0.586639940038152 0  7.128428867181358e-19 0.5 0  1 0.5 0  0.5 3.849919868464404e-18 0  0.5 1 0  2.68757304434637e-18 0.75 0  1.656266703250814e-18 0.25 0  1 0.25 0  1 0.75 0  0.75 2.909752488716483e-18 0  0.25 9.79333763168554e-19 0  0.25 1 0  0.75 1 0  2.964408019918757e-18 0.625 0  2.282806360728439e-18 0.375 0  1 0.375 0  1 0.625 0  0.625 3.373774151166115e-18 0  0.375 2.476279411848765e-18 0  0.375 1 0  0.625 1 0  0.125 1.652187775498421e-18 0  0.875 8.835721268276909e-19 0  1 0.125 0  1.403422052381125e-18 0.875 0  0.125 1 0  0.875 1 0  1.345257613692878e-18 0.125 0  1 0.875 0  0.1596633370934732 0.136352016148911 0  0.8403257730955682 0.8635844659436022 0  0.8403527172482931 0.1363351545989871 0  0.1419205086878972 0.8580485840261471 0  0.9148330058826974 0.1994754985376539 0  0.1073015399035262 0.2234656333087011 0  0.8926926017988037 0.7765933674625694 0  0.1056146392950094 0.7449596008301215 0  0.233634248493748 0.8926379320574819 0  0.07696227875232489 0.07696715883257819 0  1 0.0625 0  0.9375 1.266371815686811e-18 0  0.0625 1 0  7.873692800295895e-19 0.9375 0  0.9230040845319553 0.9230430486685325 0  0.7163200909406238 0.09626221862774288 0  0.2837140331556243 0.09628801631972378 0  0.754507814884365 0.8951567887667468 0  1 0.6875 0  1 0.3125 0  0.08182134994277596 0.3083468617077788 0  1.966356651496198e-18 0.6875 0  0.1875 1.887086054949386e-18 0  0.8125 2.324968065781765e-18 0  0.9061763516946876 0.2819960791321962 0  0.6875 1 0  0.3125 1 0  0.9151368562733539 0.08486174794012037 0  0.9113798851611147 0.7021666852991298 0  1.474142158597501e-18 0.8125 0  0.08088630304668788 0.9191064467967511 0  0.07192948558421033 0.8341780377250592 0  0.8334679982979524 0.214093728043054 0  0.6600275957000014 0.9168544993008407 0  0.3040345579969322 0.912511066463907 0  0.9127014565784318 0.8491084339100547 0  0.08732692178629048 0.1507950882606534 0  0.8125 1 0  0.07437705975641486 0.6469353014997535 0  0.9220535099266957 0.3437760306159832 0  0.2068186950929495 0.813564779704245 0  0.6530396799970614 0.07380940096712153 0  0.3125 1.557252499903185e-18 0  0.3529950242480393 0.07390846435380174 0  0.2356510820907809 0.147591192957745 0  0.7905606585660238 0.08321063826443106 0  0.1641661399710693 0.9280803920675734 0  0.5625 1 0  0.4375 2.116693940794543e-18 0  0.4375 1 0  0.5625 3.888210343314328e-18 0  0.1953718840191923 0.07749026498051848 0  0.9221375992219192 0.6328002048313675 0  0.7703013911454564 0.1583346192075656 0  0.8186314075632812 0.9282246076808424 0  1 0.4375 0  1.909074770734817e-18 0.4375 0  1 0.5625 0  7.014044838504321e-18 0.5625 0  1.950405385191279e-18 0.3125 0  1 0.8125 0  0.0625 7.709471530552907e-19 0  1.185822865366394e-18 0.0625 0  5.439739201126634e-19 0.1875 0  1 0.1875 0  1 0.9375 0  0.9375 1 0  0.6875 3.571609095166107e-18 0  0.1875 1 0  0.7891963296212345 0.8094218823270313 0  0.1772092729000833 0.2088141302547717 0  0.8545896209984729 0.06813294483510782 0  0.1677285410872 0.7659358402326609 0  0.362725582802214 0.9259457242564709 0  0.9307649482184769 0.4204640604031185 0  0.0692642140523317 0.579592696744479 0  0.06541003418667743 0.4117381913966535 0  0.5884699233506916 0.06356598118890334 0  0.6041623025737844 0.926513195878501 0  0.4080893817966004 0.06577285836798717 0  0.0628250584098432 0.705427391458525 0  0.938232071929098 0.5294126855389089 0  0.06176438071656481 0.4705607059133551 0  0.135123688126019 0.2814287556023971 0  0.1365418601447239 0.07525414622864787 0  0.9367170989047495 0.5823501485581211 0  0.6980266365492356 0.8725661748701521 0  0.7192013470448012 0.9383197419078255 0  0.0619930502426035 0.3576682753500628 0  0.9352505457204457 0.1401229579409624 0  0.415968467643094 0.9356804381436694 0  0.5375463579031743 0.06216945733665281 0  0.4704300689494615 0.05811642553621328 0  0.4671993955052859 0.9402169351517216 0  0.5295777601323096 0.9418671648115116 0  0.8564005164304483 0.7234837659779992 0  0.8289320686540187 0.7705207832185883 0  0.0489490270011083 0.7737349194348968 0  0.7380197595304717 0.8353330459292332 0  0.2541579954630372 0.8340531679836239 0  0.04853714743373182 0.226191658647277 0  0.9404856427098649 0.7521758616630334 0  0.9363716475413741 0.4737641886393857 0  0.06365212290369179 0.5262515581749186 0  0.8686019058225366 0.9156158681094277 0  0.850840236490719 0.2648513560479395 0  0.1188823132343003 0.6747109725558471 0  0.7740340029465844 0.9532226867928946 0  0.1146520562651549 0.7938703320063137 0  0.188160392495363 0.8760744125271389 0  0.2260737979621903 0.9523536396367853 0  0.8644560958139427 0.8167006254346639 0  0.8830237174066686 0.1623724706202886 0  0.9457892046405245 0.2379628096234967 0  0.9426526727390784 0.8096668691372232 0  0.2397418451470191 0.05553533763911678 0  0.2917070299831509 0.8612944257936657 0  0.7894208370861674 0.8628350626690862 0  0.7124319789666332 0.04214002808779479 0  0.2875693869833639 0.04213529017546273 0  0.7565798147715931 0.05229349739221899 0  0.8976529386266897 0.04074710513505234 0  0.03886232991115166 0.1618181634070714 0  0.1346661232907926 0.175232646140811 0  0.9500548057126096 0.301331648193288 0  0.1461827629516339 0.708209025551246 0  0.9634261312325388 0.09792209321021636 0  0.2266582383809153 0.207366618374913 0  0.05106021256867704 0.8817755662727297 0  0.09791390672064303 0.963246449533257 0  0.1615104003665237 0.03690082496631619 0  0.873012580379586 0.3314610955542722 0  0.7728219502684549 0.2079440106082974 0  0.1012997903286474 0.03848620289406891 0  0.03576267912874923 0.09779115217691392 0  0.8957241423633704 0.9591682057201059 0  0.9642780571657485 0.9022118884175265 0  0.111953305988064 0.1134203231162171 0  0.9586625940925769 0.9586683365639664 0  4.646027613254745e-19 0.03125 0  0.03125 9.053172028291306e-19 0  0.04427653254327461 0.9557340373154526 0  0.9528055560057276 0.04719293446684289 0  0.8863881610232583 0.6596145554402377 0  0.1553861789948806 0.8118824031652656 0  0.1543921005258616 0.2445320727595198 0  0.08351026154257474 0.2647690094618183 0  0.28125 1 0  0.2693548369081296 0.9507346556081299 0  0.09635043837184738 0.8680037776172743 0  0.6722054301868989 0.1176238275036963 0  0.7237253351026757 0.1490066197569302 0  0.3293487331090022 0.1152154356332197 0  0.281765989378759 0.148025348545934 0  0.9056373465610461 0.3861349845092983 0  0.8090540304129769 0.1738756558522813 0  1.733291665175404e-18 0.28125 0  0.1311716671226656 0.3211039468516437 0  0.6401599398920664 0.9559430661713573 0  0.1939373348081219 0.1704957686779243 0  0.8967709351890791 0.2420580475119553 0  0.9611476363915769 0.7172680462894232 0  0.9442271832773897 0.6741797350934333 0  0.3566812070150089 0.8784428274008539 0  0.2349872947564236 0.1011074713714031 0  0.04384137969428909 0.04382483553454265 0  0.563981021373783 0.9177608046707865 0  0.1228206603333575 0.9240790294597294 0  0.1101692804066524 0.3787787904988151 0  0.9576603014951636 0.1743642954052776 0  0.883104826797388 0.1187837521055301 0  0.7527032351798967 0.1095872561582588 0  0.9563040654835459 0.8615954655993093 0  0.84375 1.395525374701367e-18 0  0.8211790426104962 0.04448222987816491 0  0.4987935349015057 0.9120660594517804 0  0.4999802878092595 0.08965827982104806 0  0.8965907330619582 0.8863701486336677 0  0.8045696897911002 0.2520321955008368 0  0.07032546822236467 0.1947938195996336 0  0.84375 1 0  0.854359298330886 0.9575252836566961 0  0.09606838514742812 0.6091762285982203 0  0.04796068945588032 0.619268125833135 0  0.3965802674215586 0.8977544094979585 0  0.59375 1 0  0.04491962484573126 0.2793636964639591 0  1 0.34375 0  0.9529837617609824 0.3692216900978691 0  0.1976917793153197 0.2481158894396295 0  0.3055760
[...]
<CellData  Scalars="dens"> 
<DataArray  type="Float64"  Name="dens"  format="ascii">8.7461499206780369e-01   8.5658217892560984e-01   8.3999439672307785e-01   8.4495409138516653e-01   8.3789767771210810e-01   8.1616393508681195e-01   8.4462069028635245e-01   8.5522456623763621e-01   8.4785400048466619e-01   8.3010939860044863e-01   8.3752404951144577e-01   8.5914747903026389e-01   8.3925646692347322e-01   8.3496894611278905e-01   8.5266638256263194e-01   8.4537694465495006e-01   8.4535661003044837e-01   8.2018276564976289e-01   8.7406563781907076e-01   8.5425358084531278e-01   8.5918513260556018e-01   8.4809949711854482e-01   8.3521955457201325e-01   8.5420341496824315e-01   8.4550024637780863e-01   8.7345234447343600e-01   8.5752902718037827e-01   8.6046865414906237e-01   8.6665182490648363e-01   8.4862206867929868e-01   8.3484259197977972e-01   8.4726497627436581e-01   8.5162164417621278e-01   8.4155799997108793e-01   8.2684485462653257e-01   8.8685049832079166e-01   8.4621140985718224e-01   8.3712181812456132e-01   9.0005251656083984e-01   8.6671008203937538e-01   8.6352809789896057e-01   8.9741829040172671e-01   8.4664147394643996e-01   8.4300113241359709e-01   8.5085798793337164e-01   8.3978712107370390e-01   8.4344051928853314e-01   8.2610364601306097e-01   8.6167861574919202e-01   8.5419556520658557e-01   8.5007130838020628e-01   8.3848444256807020e-01   8.4620182707126634e-01   8.6270222267367713e-01   8.5380285807745515e-01   8.4463305867949690e-01   8.4964032792296940e-01   8.3565123369336902e-01   8.4889078589757039e-01   9.0151592416979942e-01   8.9658521152186199e-01   8.6422879262206553e-01   8.4669725166668008e-01   8.6985696299320925e-01   8.9467387264563125e-01   8.3923977957029394e-01   8.5538936780377195e-01   8.8413068118837546e-01   8.4965847075002521e-01   8.5354283056554736e-01   8.4802991442508691e-01   8.4782950429411086e-01   8.6208088104438663e-01   8.4284605780744759e-01   8.4623926680886286e-01   8.4421310870568911e-01   8.4716819689319034e-01   8.4358788171679444e-01   8.4264752096403184e-01   8.5897251420472376e-01   8.4011915560893613e-01   8.4930171760941087e-01   8.3734171968796733e-01   8.5164949188568118e-01   8.4761734221777518e-01   8.5727048381116788e-01   8.6261026610712110e-01   8.4569056623609506e-01   8.6195126582639814e-01   8.4828685171823837e-01   9.1495460323130062e-01   8.6000990494789276e-01   8.6248973617829294e-01   8.4365884779049571e-01   8.5408603037092456e-01   8.5328695200783100e-01   8.5332302304988183e-01   8.3755012763736003e-01   8.4829467969464611e-01   8.4493218830587158e-01   8.6777177453843646e-01   8.5372465299272415e-01   8.5362909578906820e-01   8.5990874192407218e-01   8.7678666263330374e-01   8.6133528134291348e-01   8.6170383216890978e-01   8.4112876777529622e-01   8.2841652307443703e-01   8.5105919838978628e-01   8.4510124289028554e-01   8.8833254089653035e-01   8.5047600416343994e-01   8.3196451006655958e-01   8.4411386417934997e-01   8.4690335187666277e-01   8.7697190629663657e-01   8.6652953724955128e-01   8.2868810220954425e-01   8.2177121497740813e-01   8.4553256364303220e-01   8.2965377587982247e-01   8.2964489256202167e-01   8.4168941310358936e-01   8.5076660586249964e-01   8.3858157633995545e-01   8.4673836886078491e-01   8.4997986143991588e-01   8.4389093868251319e-01   8.1991460419163487e-01   8.4078462732019366e-01   8.8519556468857941e-01   8.2486412137354914e-01   8.3324025826415260e-01   8.6879914818033743e-01   8.4797651577879485e-01   8.9269786498891157e-01   8.6538133630554592e-01   8.5585584642973267e-01   8.6392075136751312e-01   8.6897354675736105e-01   8.4718977077814828e-01   8.0404098947092295e-01   8.4963186821105730e-01   8.3091995442855815e-01   8.3526220135636886e-01   8.4312579044002267e-01   8.7788745049710826e-01   8.4776038231500150e-01   8.3779553605393220e-01   8.4373204376786670e-01   8.1779531640908876e-01   8.2896885704478440e-01   8.1513494193479297e-01   8.4047543353496146e-01   8.2994880415156203e-01   8.3495918053645057e-01   8.5936467054265775e-01   8.3758176315584509e-01   8.3203238004739366e-01   8.2287718022275458e-01   7.9609812011823988e-01   8.4074998014372604e-01   8.1574608134086357e-01   8.1136834003084091e-01   8.4073749371912121e-01   8.4468588913019371e-01   8.5411059071167528e-01   8.1089074589461974e-01   8.2199792975224084e-01   8.4763117853013370e-01   8.3006943022026514e-01   8.4032344813259185e-01   8.4343419605841119e-01   8.4115605673829741e-01   8.8128362058243492e-01   8.5818847989479796e-01   8.3147245733832287e-01   8.3517401010556414e-01   8.4006551391805995e-01   8.4606523241772835e-01   8.3206067499542347e-01   8.2752267130090063e-01   8.4480354171423244e-01   8.3594992180126848e-01   8.4602380816058631e-01   8.4945786014271540e-01   8.5457876551973833e-01   8.4313130632763722e-01   8.4252203470244835e-01   8.4365992876295759e-01   8.4623311995966677e-01   8.4666713864416276e-01   8.0584568755656050e-01   8.4048230892315501e-01   8.2043211756706469e-01   8.5279966926473805e-01   8.5148870154834599e-01   8.6614360041408411e-01   8.6622405690998583e-01   8.4282397573997758e-01   8.4523919215250920e-01   8.6368943812086318e-01   8.4072723383048598e-01   8.4494723705077845e-01   8.4817763796132961e-01   8.5149543358423818e-01   8.4768989262918348e-01   8.5557763974062395e-01   8.5717190728383186e-01   8.4002601012677625e-01   8.4425398268930674e-01   8.6202530881312789e-01   8.5644145680979888e-01   8.5269057762077405e-01   8.5394030657899289e-01   8.5170024206587225e-01   8.6999037982427241e-01   8.4195883683239914e-01   8.4513581718454556e-01   8.4908772937830923e-01   8.4722015739015000e-01   8.4860867803223383e-01   8.5096111384380357e-01   8.4930961680610739e-01   8.5718983557435036e-01   8.8018067745052431e-01   8.6560319835787658e-01   8.5112339831054440e-01   8.5741344299062749e-01   8.3943040936292079e-01   8.7301851578905487e-01   8.4681873937910968e-01   8.6337207373386493e-01   8.8428495476447522e-01   8.3576430496578358e-01   8.3361269724764231e-01   8.9899546459196689e-01   8.9424930471947972e-01   8.6026984496767789e-01   8.7821154227710418e-01   8.5092207519977936e-01   8.4925150231744495e-01   8.2658245563440214e-01   8.4100665898672755e-01   8.7461900437520446e-01   8.7061593794539660e-01   8.6961932527219110e-01   8.8331075666628689e-01   9.2602029486474025e-01   8.6991783562114144e-01   8.6752915147353049e-01   8.7646395729851789e-01   8.8348835048023755e-01   9.0612386678662282e-01   9.2418997792361701e-01   9.0205292648330748e-01   8.9845348079798915e-01   9.1661329683183335e-01   8.5004832337142677e-01   8.3709598285308684e-01   8.4139716116523611e-01   8.3527702532524806e-01   8.4710288192253935e-01   8.4293763275475897e-01   8.4162280480197837e-01   8.5365360248538458e-01   8.3010704193679918e-01   8.4717186132969280e-01   8.4641398812607938e-01   8.5284157779816339e-01   8.4154153378095387e-01   8.5940424464897724e-01   8.4423377957006862e-01   8.4873222795151493e-01   8.3580484393601273e-01   8.5076298125097927e-01   8.8308125027673889e-01   8.4946399693707419e-01   8.4320254684510954e-01   8.4217661065220173e-01   8.1923517855795969e-01   8.3323969959197974e-01   8.6331384723706495e-01   8.5109644870003265e-01   8.4847675972015768e-01   8.3722368209387998e-01   8.4197470850056511e-01   8.4509489119587533e-01   8.3944638754602363e-01   8.2780301299219805e-01   8.5842260539684678e-01   8.4660697997750756e-01   8.5428168157362339e-01   9.0488606410192018e-01   9.1507496623429418e-01   8.5975147113341566e-01   8.5282527018528498e-01   8.6031851001666060e-01   8.6392279450949083e-01   8.5806765125757367e-01   8.5274814983031522e-01   8.5572400426099737e-01   8.7092475799761215e-01   8.4733991291443234e-01   8.5068504892588293e-01   8.8962199255085683e-01   8.7019076024952224e-01   8.5625567314376183e-01   8.6647094428780125e-01   8.6012733270110697e-01   8.5866923967238706e-01   8.4522371087890058e-01   8.3874832085004425e-01   8.3967676189526685e-01   8.6247006671935600e-01   8.7962256731029786e-01   8.5046614074712146e-01   8.4705147577993822e-01   8.5952890258132331e-01   8.7048886277927939e-01   8.9166543250401764e-01   8.5660750436088440e-01   8.6534958672831941e-01   8.5381378910439087e-01   8.3135200837766610e-01   8.5165598158223010e-01   8.6806245756292810e-01   8.1909329674502329e-01   8.2085192113546179e-01   8.4529294462058213e-01   8.5124736479383212e-01   8.5414780165457738e-01   8.2121922442150408e-01   8.2826483406453577e-01   8.3102441698339935e-01   8.2913292403681649e-01   8.3682187712650191e-01   8.2635235805850815e-01   8.3493823102716169e-01   8.4740392188415681e-01   8.4469693721605421e-01   8.4071134885478971e-01   8.3972715064973480e-01   8.8950312398846010e-01   8.6317555948759017e-01   8.3801431748427890e-01   8.6262612391858950e-01   8.2648540135158366e-01   8.4185234202577286e-01   8.4166290141010747e-01   8.4406542140342877e-01   8.3071286248420817e-01   8.3304969255334271e-01   8.1817133609985582e-01   8.5086717743721940e-01   8.4580647711693291e-01   8.3711875105246347e-01   8.4376492284019611e-01   8.3543323414180859e-01   8.5621325097301593e-01   8.4715949727485029e-01   8.4983235253370504e-01   8.5724992133219458e-01   8.6192917106399825e-01   8.6552739020999969e-01   8.4906903795909117e-01   8.5507284849536191e-01   8.4750136782546059e-01   8.5004607378104358e-01   8.4839673617397404e-01   8.7136796069577926e-01   8.5305202215961340e-01   8.3094070772069528e-01   8.3262411749752463e-01   8.3836671983484279e-01   8.4534934811553852e-01   8.7961308809658534e-01   8.5341998989259515e-01   8.8012940302097731e-01   8.7158983630809916e-01   8.7129270985476492e-01   8.9230311521563377e-01   8.4998663464718505e-01   8.4879084860014109e-01   8.6346496564970687e-01   8.4747173668996068e-01   8.1018556231578032e-01   7.9047378839969185e-01   8.5722004720968614e-01   8.6521471577473263e-01   8.6351817765519301e-01   8.2776175411390451e-01   8.2147302353808571e-01   8.1221711260662743e-01   8.6910721982480110e-01   8.4918817565812243e-01   8.5743117658536838e-01   8.4512003529692803e-01   8.5190914116407157e-01   8.3969972704493023e-01   8.5152948310116161e-01   8.6102328658729999e-01   8.5868371164139112e-01   8.4163559067048443e-01   8.4716665803452540e-01   8.4687931059758959e-01   8.4931093271796643e-01   8.2602726240143143e-01   8.1262131197989074e-01   7.8974841570205878e-01   7.9007094858564975e-01   8.3921977132349246e-01   8.3835201595541564e-01   8.7518581077374802e-01   8.5468560630035406e-01   8.3158539568190437e-01   8.1206050761983783e-01   8.3891795403240044e-01   8.2864273155004187e-01   8.3755447366690483e-01   8.3478461110944313e-01   8.4763262401930051e-01   8.7090366010680464e-01   8.0160255073373177e-01   8.5720026093174362e-01   8.3597564883996300e-01   8.4837753951756012e-01   8.5034305420597556e-01   8.4147098333562909e-01   8.4003651458187756e-01   8.3801943091672537e-01   8.3512700962269737e-01   8.4557678638845279e-01   8.2430616345462848e-01   8.3284321529187288e-01   8.0462926294880088e-01   8.6656615182356345e-01   8.4132099258190118e-01   8.3762845670478203e-01   8.4238240656510499e-01   8.5054719985006277e-01   8.6112952914024421e-01   8.5881885002944958e-01   8.6630856690806501e-01   7.9077818968088143e-01   8.6005628576965099e-01   8.4338068673181332e-01   8.3686469023708421e-01   8.5360918111772099e-01   8.4832938679184122e-01   8.6701669922017510e-01   8.6907198338229230e-01   8.2898486086847256e-01   8.3236409535829692e-01   8.3007455824999854e-01   8.4245816668665541e-01   8.4144996312448161e-01   8.4544523328070553e-01   8.4134640151444351e-01   8.6650192633059964e-01   8.6262520518992103e-01   8.5471982314241790e-01   8.5718315041934068e-01   8.4432391338803414e-01   8.2953755254067263e-01   8.3674676662957981e-01   8.3440867153033305e-01   8.5333504400595983e-01   8.4931377714263789e-01   8.4582474020179643e-01   8.3582124140915348e-01   8.2695218203925658e-01   8.3506448865399141e-01   8.4949301341426187e-01   8.4777467870190459e-01   8.5420021659913814e-01   8.5214066465126448e-01   8.1093478169903899e-01   8.1710067124162722e-01   7.9709089252066612e-01   8.9050439683314908e-01   8.5351200522036530e-01   8.8440537784580830e-01   8.3572446826219637e-01   8.2711564556910755e-01   8.4927005787372822e-01   8.4654284476847785e-01   8.6835454168547066e-01   8.6236997800318427e-01   8.6234961690416578e-01   8.5362045364472128e-01   8.3988751662243710e-01   8.3679280376355047e-01   8.5455690788494099e-01   8.2864135293373997e-01   8.4893857303412590e-01   8.5103519853358423e-01   8.4947507052721083e-01   8.4813106412333239e-01   8.4378997659218091e-01   8.3184636497225384e-01   8.4280706182996745e-01   8.4738136798177321e-01   8.4944216659070093e-01   8.5280639693017368e-01   8.4369707346415423e-01   8.0386267108580922e-01   8.2804285724642357e-01   8.3439212839312416e-01   8.1628732748142652e-01   8.4275159770162389e-01   8.6377536752724160e-01   8.8774750607327879e-01   8.7626926236325253e-01   8.5972196379928389e-01   8.4661250146242228e-01   8.5172826490515618e-01   8.4599819862626335e-01   8.2675986123559775e-01   8.4035129290347599e-01   8.4704549469101709e-01   8.4329966976387161e-01   8.4103972253763926e-01   8.1467073997306594e-01   7.8956883610938600e-01   8.4689716013837302e-01   8.4518176101232112e-01   8.2605653334975848e-01   8.4113203733780528e-01   8.2495201049550160e-01   8.2960507479637713e-01   8.4390478873703789e-01   8.4332672897233618e-01   8.4929806621981430e-01   8.5634324905341963e-01   8.5156534965940844e-01   8.7398864011135080e-01   8.7893992432568913e-01   8.5317164231619125e-01   8.5327612842314282e-01   8.6280327293095049e-01   8.2788767035518096e-01   8.2102903652610149e-01   8.8872594300339502e-01   8.9085505857575398e-01   8.9245439897722212e-01   9.1439262197010185e-01   9.1420155892400123e-01   9.2439200532423327e-01   8.9010589856968447e-01   8.9130546526612475e-01   8.7613924669110754e-01   9.0435708558039607e-01   8.6315259402818456e-01   8.8156894987310008e-01   8.9249991976545440e-01   8.7864350913781897e-01   8.7756132888917870e-01   8.9505469767760915e-01   8.9293672189834483e-01   8.9294125807053926e-01   8.2991553329468792e-01   8.2031703444618775e-01   8.4134658210596525e-01   8.4747033071368172e-01   8.5445454825422074e-01   8.3971920101784470e-01   8.6786637893790430e-01   8.5910942276372104e-01   8.2709284149839324e-01   8.1406102010201886e-01   8.8673985423626767e-01   8.9202330644828043e-01   8.6997964677170814e-01   8.5784671581527172e-01   8.5356413076010418e-01   8.4408962022843914e-01   8.4873803689878169e-01   8.6213916399198476e-01   8.0465972780863126e-01   8.1807463987232532e-01   8.1490750942175805e-01   8.2152854625023475e-01   7.9665125184157637e-01   7.9061584135844187e-01   8.0497326785207257e-01   8.2592560108005131e-01   8.2716225098897156e-01   8.1421121731776103e-01   8.2992032826561624e-01   8.1522711997979447e-01   7.9747063357081371e-01   8.1515734538656903e-01   8.2254632756142898e-01   8.1463553964726543e-01   8.8401682147612315e-01   9.0624241362726410e-01   8.9145421583698936e-01   9.0264164570479655e-01   9.1737627618108275e-01   9.0384774664875112e-01   9.4953558024503837e-01   9.4942550664061975e-01   9.2624530155387930e-01   9.1534465511827856e-01   8.4438953001604544e-01   8.2195952136489381e-01   8.6673222881286638e-01   8.7917066293705537e-01   8.5340886163604712e-01   8.5998089572557579e-01   8.3448062889393571e-01   8.7201324035910810e-01   8.7644870409383047e-01   8.5624266123388237e-01   8.8174693658023873e-01   8.5083718983566881e-01   8.4576918700502024e-01   8.6593771120081298e-01   8.5711494132835886e-01   8.5913112450275120e-01   8.5748851188771058e-01   8.8538121398562808e-01   8.7002843391347817e-01   7.9801406063082547e-01   8.1641604668437573e-01   8.3262951285897480e-01   8.2062961074796170e-01   8.1087123483340351e-01   8.2632714564638365e-01   8.5987496355303272e-01   8.5965972711759886e-01   8.7322311868678981e-01   8.6720685740895764e-01   8.6219465741506740e-01   8.6029198613691327e-01   8.4452245301633821e-01   8.8484511139391220e-01   8.4220224964056756e-01   8.2324760750779258e-01   8.1653523142998441e-01   8.7470419066366789e-01   8.3392871153452286e-01   8.4494210760991606e-01   7.8934274671030202e-01   8.0993080882347845e-01   8.5353617370894319e-01   7.8907388587844407e-01   8.0996615167026154e-01   8.6050693568872405e-01   8.6391256191565757e-01   8.5654798298786350e-01   8.6220201039144628e-01   8.5088217277542511e-01   8.5557701360716143e-01   8.4783548795836372e-01   8.5078978411449335e-01   8.5087610555733506e-01   8.1753906108497809e-01   8.8205739269898598e-01   8.7756481204494319e-01   8.7031294611949639e-01   8.5132470848577235e-01   8.2615572057266518e-01   8.4148378212082175e-01   8.7950605341435473e-01   8.5538159599143471e-01   8.6091973922063381e-01   8.2587853868038930e-01   8.5092337364079318e-01   8.8224997508488257e-01   8.6898095216868898e-01   8.5927853370369711e-01   8.5950123623704833e-01   8.5335223915564551e-01   8.8001791065465984e-01   8.5775328643876936e-01   8.7495976752104621e-01   8.3926962347908429e-01   8.3397845250231417e-01   8.8668124555433636e-01   8.6826314856407405e-01   8.4666137127333096e-01   8.5221490412775058e-01   8.3555370378271598e-01   8.5058211359491354e-01   8.4132527222294939e-01   8.3562127163996125e-01   8.5458032946070484e-01   8.8848146747989176e-01   8.2649728823865454e-01   8.2687896091964219e-01   8.4762584688661058e-01   8.4052250274399720e-01   8.4922874504344448e-01   8.3584794100892656e-01   8.4091400810123806e-01   8.4232128377297022e-01   8.3437619765774640e-01   8.7719922979076903e-01   8.5838602427097743e-01   8.8975195787587413e-01   8.7473118562425445e-01   8.7900729396298427e-01   8.7904391298712192e-01   8.3056606912102038e-01   8.4987747092065757e-01   8.0233015022569354e-01   8.1481990294726836e-01   8.4551974843017719e-01   8.4368983020996757e-01   8.5946561647146280e-01   8.4364626471782855e-01   8.5129447092596222e-01   7.9835486226210639e-01   8.2132275758851570e-01   8.5896078552110489e-01   8.7960799092122377e-01   8.6737935320831605e-01   8.8731480182297495e-01   8.3123536473003745e-01   8.2415401671440069e-01   8.3263676158580469e-01   8.4089343434304875e-01   8.9130108549834985e-01   8.6636694427916916e-01   8.4972505708983459e-01   8.5175968108592548e-01   8.4922921532995632e-01   8.5033675997018177e-01   8.6670661939879812e-01   8.5700870212992097e-01   8.5112667423596866e-01   8.3929072043897968e-01   8.4728620515859798e-01   8.4337714127326158e-01   8.4533212068840069e-01   8.4738906542174941e-01   8.4859274541966478e-01   8.4603948452481548e-01   8.5016707902180366e-01   8.4851185867883294e-01   8.5098263649906436e-01   8.8186787509827458e-01   8.5765911612102708e-01   8.9997955220305215e-01   8.8717258577579516e-01   8.4217240525824677e-01   8.3225367532853167e-01   8.6565328730448776e-01   8.6050360237361123e-01   8.4928822839744800e-01   8.4738286515416494e-01   8.4880519900066531e-01   8.4292882346834286e-01   8.3396964962152575e-01   8.4716973238483895e-01   8.4553189671490325e-01   8.4091330150313170e-01   8.2849681901779326e-01   8.1724631716271201e-01   8.4779880583208089e-01   8.5925774654279996e-01   8.5094679343456903e-01   8.4266342793131477e-01   8.4010894849258400e-01   8.4905813144424203e-01   9.1443205232135638e-01   8.0992036759811137e-01   8.1064186453544762e-01   8.3897663720315208e-01   8.7924129726137223e-01   8.4702706001043560e-01   8.5223651746289875e-01   8.5523949310832303e-01   8.7454777244560999e-01   8.5911856474679882e-01   8.8047767933884236e-01   8.4216138464737711e-01   8.4693820260320418e-01   8.3779185495824304e-01   8.3520106139543804e-01   9.0204402500244896e-01   8.6282186533041594e-01   8.3884396328672595e-01   8.4929823178769182e-01   8.4506411555362648e-01   8.2885784682174246e-01   8.3217734793033882e-01   8.4743260857048075e-01   8.5302474485101487e-01   8.3910360536494377e-01   8.3251341403834389e-01   8.5304660620572792e-01   8.4058898837598206e-01   8.81119978462294