<?xml version="1.0"?>
<VTKFile type="UnstructuredGrid"  version="0.1"  >
<UnstructuredGrid>
<Piece  NumberOfPoints="1109" NumberOfCells="1972">
<Points>
<DataArray  type="Float64"  NumberOfComponents="3"  format="ascii">0 1 0  0 0 0  1 0 0  1 1 0  0.8968458805257912 0.5501332934257217 0  0.9 0.5 0  0.8968458805257911 0.4498667065742781 0  0.8874332644514524 0.4005240451340579 0  0.8719105943553006 0.3527501789261288 0  0.8505226720175453 0.3072985303593135 0  0.823606797749979 0.2648858990830106 0  0.7915874509685645 0.2261811576285244 0  0.7549695958994758 0.1917947028896841 0  0.7143307179915988 0.162268829799194 0  0.6703117166260287 0.138069179013592 0  0.6236067977499788 0.1195773934819385 0  0.5749525258342897 0.1070850997085245 0  0.5251162078117251 0.1007893086286913 0  0.4748837921882747 0.1007893086286913 0  0.4250474741657101 0.1070850997085245 0  0.376393202250021 0.1195773934819386 0  0.3296882833739712 0.1380691790135921 0  0.2856692820084015 0.1622688297991939 0  0.2450304041005242 0.1917947028896843 0  0.2084125490314353 0.2261811576285246 0  0.1763932022500209 0.2648858990830109 0  0.1494773279824546 0.3072985303593139 0  0.1280894056446994 0.3527501789261288 0  0.1125667355485475 0.4005240451340581 0  0.1031541194742088 0.4498667065742783 0  0.09999999999999998 0.5 0  0.1031541194742089 0.5501332934257218 0  0.1125667355485476 0.5994759548659421 0  0.1280894056446995 0.6472498210738713 0  0.1494773279824546 0.6927014696406861 0  0.176393202250021 0.7351141009169893 0  0.2084125490314355 0.7738188423714756 0  0.2450304041005241 0.8082052971103157 0  0.2856692820084012 0.837731170200806 0  0.3296882833739709 0.8619308209864078 0  0.3763932022500212 0.8804226065180615 0  0.4250474741657101 0.8929149002914756 0  0.4748837921882746 0.8992106913713087 0  0.5251162078117254 0.8992106913713087 0  0.5749525258342899 0.8929149002914755 0  0.623606797749979 0.8804226065180614 0  0.6703117166260291 0.8619308209864078 0  0.7143307179915986 0.8377311702008061 0  0.754969595899476 0.8082052971103157 0  0.7915874509685646 0.7738188423714755 0  0.823606797749979 0.7351141009169893 0  0.8505226720175454 0.6927014696406861 0  0.8719105943553006 0.6472498210738712 0  0.8874332644514524 0.599475954865942 0  0.5 1 0  0 0.5 0  1 0.5 0  0.5 0 0  0.75 1 0  0.25 1 0  0 0.75 0  0 0.25 0  1 0.25 0  1 0.75 0  0.75 0 0  0.25 0 0  0.625 1 0  0.375 1 0  0 0.625 0  0 0.375 0  1 0.375 0  1 0.625 0  0.625 0 0  0.375 0 0  0.125 0 0  0.875 0 0  1 0.125 0  0 0.875 0  0.125 1 0  0.875 1 0  0 0.125 0  1 0.875 0  0.1443946775413214 0.1213187937376868 0  0.8556053224586788 0.8786812062623132 0  0.8556053224586785 0.1213187937376867 0  0.1275360334547992 0.8724639665452008 0  0.9261623581710797 0.1875 0  0.09234641934319709 0.2082689144241477 0  0.9076535806568029 0.7917310855758523 0  0.08970099689351971 0.7603836651344988 0  0.2182130526099624 0.9079579669686324 0  0.07086411995581518 0.07086411995581518 0  1 0.0625 0  0.9375 0 0  0.0625 1 0  0 0.9375 0  0.9291358800441849 0.9291358800441849 0  0.7304772975931939 0.08076335202639119 0  0.2695227024068061 0.08076335202639115 0  0.7697819974699807 0.9105968468121929 0  1 0.6875 0  1 0.3125 0  0.06784168511078095 0.2966417331842567 0  0 0.6875 0  0.1875 0 0  0.8125 0 0  0.9212459744619301 0.2681742056774029 0  0.3125 1 0  0.6875 1 0  0.922097136530977 0.07790286346902295 0  0.9261304603587264 0.7150772115644075 0  0 0.8125 0  0.07432186328509671 0.9256781367149033 0  0.06317182982585627 0.84375 0  0.8548473925302104 0.1928285354262928 0  0.2914274450692525 0.9272721924131209 0  0.6710199663399635 0.9319471281137308 0  0.9226595291420543 0.8597667107019437 0  0.0773404708579461 0.1402332892980563 0  0.8125 1 0  0.06054886616517211 0.65625 0  0.9362657027224049 0.3336129027547622 0  0.1841195715992005 0.8363784907223111 0  0.6625377124131507 0.06023416665880475 0  0.3125 0 0  0.34375 0.06016090820395464 0  0.2153846372786545 0.1270381302276244 0  0.8024953780019808 0.07187189600048093 0  0.1546395545758083 0.9367961467266345 0  0.5625 1 0  0.4375 0 0  0.4375 1 0  0.5625 0 0  0.1844766880788185 0.06724298999790632 0  0.9369725282473387 0.6419809811402504 0  0.791523351719164 0.1369023590147849 0  0.8285961364903059 0.9374018659319692 0  1 0.4375 0  0 0.4375 0  1 0.5625 0  0 0.5625 0  0 0.3125 0  1 0.8125 0  0.0625 0 0  0 0.0625 0  0 0.1875 0  1 0.1875 0  1 0.9375 0  0.9375 1 0  0.6875 0 0  0.1875 1 0  0.8126465958421825 0.8329348088176629 0  0.1550798535647612 0.1867680086445373 0  0.8631981559835366 0.06032295929500282 0  0.1449089435554358 0.7884432695884597 0  0.3538206140027237 0.9399564250283491 0  0.944997661525766 0.4151121561005554 0  0.05500233847423393 0.5848878438994446 0  0.0520912947951912 0.40625 0  0.59375 0.05063263303723638 0  0.6113142584645842 0.9411585052804305 0  0.402402637527157 0.05243074290023167 0  0.05237021982595785 0.7146869946988353 0  0.9514280734197595 0.53125 0  0.04857192658024048 0.46875 0  0.1138995451272664 0.2618291859344329 0  0.1276043399716366 0.06698080255494471 0  0.9496852823490703 0.5873315358652272 0  0.7164226875694513 0.8936714072472519 0  0.728445758907293 0.9483406189827143 0  0.05037626111865807 0.3500677784994627 0  0.9425695009311538 0.1320174568820216 0  0.4108317852857326 0.9488345682840208 0  0.5398628985995173 0.04893133705064829 0  0.46875 0.04573672429098317 0  0.4652931800096448 0.9529811055869081 0  0.53125 0.9542632757090168 0  0.8785971272885281 0.7441734326495726 0  0.8518416617605847 0.7931754903661554 0  0.04183404050302509 0.78125 0  0.7612395846848441 0.8595654412716175 0  0.2310588911243982 0.8579303197600836 0  0.04148050284378633 0.21875 0  0.9494864361787021 0.7612608042848362 0  0.9500000000000001 0.4721339993173143 0  0.04999999999999998 0.5278660006826856 0  0.8781553628189985 0.9246252444972441 0  0.8731991046476956 0.2435858407989878 0  0.09811738497342513 0.6912987895906199 0  0.78125 0.9600244726998853 0  0.09951704281279977 0.8094116423849811 0  0.1723930843372325 0.8914409560171174 0  0.21875 0.9592823984315264 0  0.8808053857873319 0.8333253975559158 0  0.8963977713581862 0.1485308906960134 0  0.9538351164349618 0.2296733193971382 0  0.9502525126806526 0.8180081280125184 0  0.2312490385075739 0.04727387874777968 0  0.2715914187620846 0.8835921407480765 0  0.8075381809024645 0.880775593205643 0  0.71875 0.03518728418751645 0  0.28125 0.03518728418751642 0  0.7646042202168328 0.04444036111707996 0  0.9023329991729737 0.03666350737326187 0  0.03401531498238862 0.15625 0  0.1188530488980251 0.1590855287670435 0  0.9585274478449393 0.2940602659505009 0  0.122777080947294 0.7293581095092172 0  0.9670375667902916 0.09375 0  0.2005134857209875 0.1810792546569654 0  0.04567406045797464 0.8878541658538743 0  0.09375 0.966869578205468 0  0.1562008719445321 0.03232788333739163 0  0.8953932105853648 0.3139420780646932 0  0.7990572522972532 0.1815363722387022 0  0.0968875242781685 0.03463409819727443 0  0.03223722036876893 0.09375 0  0.9004223587754672 0.9633108159792649 0  0.9677627796312311 0.90625 0  0.1015654613822437 0.1029847255361322 0  0.9612688796250578 0.9612688796250578 0  0 0.03125 0  0.03125 0 0  0.04144949962501476 0.9585505003749852 0  0.9558898336496962 0.04411016635030385 0  0.9068917513393455 0.6748714165270275 0  0.1368346895292699 0.830580202512584 0  0.1325215314767946 0.2232188145997174 0  0.07053058491102715 0.2523250971165124 0  0.28125 1 0  0.2618257196382527 0.9585732837283344 0  0.08628220552312613 0.8784418410901162 0  0.6885162251696433 0.09694521726220126 0  0.7451861497985837 0.1260293295250874 0  0.313422114933215 0.09491014745286984 0  0.2604190570795071 0.1249189143540631 0  0.9242490330121279 0.3761177923443456 0  0.8294827367589617 0.1534479284350518 0  0 0.28125 0  0.1085704015556412 0.3026527142683792 0  0.6454377779583714 0.9642341400769985 0  0.1735682150935896 0.1501527832362767 0  0.9118639212665761 0.2270478094042325 0  0.9675029085737417 0.7231519194735394 0  0.9540854621793986 0.6818714685662951 0  0.3411855214203015 0.9011195850022233 0  0.2203778463487443 0.08657146517086198 0  0.04103470738435357 0.04103470738435357 0  0.5692124642834736 0.9350661676969988 0  0.1143804055696223 0.9319617439078584 0  0.08871656954519293 0.3663659127109965 0  0.9630811790855398 0.168250321868886 0  0.8941478109554366 0.1077225817667272 0  0.7685953432959879 0.09339992494635127 0  0.9613334331586147 0.8673647296762501 0  0.84375 0 0  0.8276419188889859 0.03874003995670209 0  0.4987074584280061 0.9312004428379874 0  0.4999999999999999 0.07012294039149713 0  0.906353444207591 0.8962759602721756 0  0.8317000502825128 0.2255938539236174 0  0.060982293117454 0.1847248153131282 0  0.84375 1 0  0.8601163332513452 0.9625346208269469 0  0.07696867235812772 0.6190771663714262 0  0.03866375363197156 0.624370156890833 0  0.386395970129115 0.9182613855572013 0  0.59375 1 0  0.03763634871355165 0.2725691404761272 0  1 0.34375 0  0.9619513789393942 0.3638256452123659 0  0.1705891391383945 0.2215719862571997 0  0.2993345649440622 0.9643978827856838 0  0.2548390693531445 0.917543736811073 0  0.4376701674058487 0.06983678836603174 0  0.6249880952696493 0.07804203554412367 0  0.8891633930840495 0.7080603551933189 0  0 0.65625 0  0.8857454763750297 0.2783067670731572 0  1 0.65625 0  0 0.59375 0  0.9147359581367025 0.7498372322849914 0  0.34375 1 0  0.08128436453222096 0.3306040779845135 0  0.8370204413255111 0.08803482611562097 0  0.4399236117509409 0.9264634199869409 0  0.3763243110806382 0.08093997073896844 0  1 0.78125 0  0.3058827875685617 0.8943637152968825 0  0.891027260700638 0.1971556622156984 0  0.1814462944911871 0.9630031969500565 0  0.1812917788273262 0.1067749496803429 0  0.2291605611046911 0.1598957180171764 0  0.630525566101238 0.03837025329843378 0  0.03363261960646192 0.92260900189631 0  0.2960793559902691 0.1260912307633523 0  0.03663553287191564 0.8179172045954961 0  0.02996523389584273 0.8560987956667739 0  0.09880166525369549 0.8450583124835681 0  0.6923212173088138 0.150169004406393 0  0.502
[...]
<CellData  Scalars="detF"> 
<DataArray  type="Float64"  Name="detF"  format="ascii">1.0939561147113825e+00   1.0914063849766698e+00   1.1140723978321265e+00   1.1050351137803140e+00   1.1095522755720024e+00   1.1335119313259834e+00   1.1064098336696593e+00   1.1051503590358733e+00   1.1109057973494378e+00   1.1176035536229760e+00   1.1108122675752421e+00   1.1024575344526708e+00   1.1179241744451858e+00   1.0908041052321644e+00   1.1066454940643888e+00   1.1098029365726427e+00   1.1036088104007327e+00   1.1071307633119529e+00   1.1304371769803290e+00   1.0940384759484363e+00   1.1055420332330987e+00   1.0921873372654782e+00   1.1030731192667775e+00   1.1084984419776689e+00   1.1066898207096629e+00   1.1137929052498530e+00   1.0941760188024003e+00   1.0920415050745824e+00   1.1078587008393059e+00   1.0848425255029563e+00   1.1003749200984700e+00   1.1229639525065163e+00   1.1113839651690711e+00   1.1099802440207882e+00   1.1128845340321409e+00   1.0680870727152929e+00   1.0988793932914567e+00   1.1061610361900627e+00   1.0604300911893811e+00   1.0830421969580302e+00   1.0883740731162910e+00   1.0611377256655357e+00   1.0981640788088587e+00   1.1018787459139112e+00   1.0995088137842839e+00   1.1053733781743726e+00   1.1027771994648730e+00   1.1156816100485143e+00   1.0895437781572199e+00   1.0950039169469661e+00   1.1020236281594500e+00   1.1087507956495062e+00   1.1008259103598901e+00   1.0889936395579405e+00   1.0970383080939563e+00   1.1091327183236634e+00   1.1049965025901844e+00   1.1076957921704260e+00   1.1009364106773021e+00   1.0599078043259471e+00   1.0613530912868656e+00   1.0846580770279957e+00   1.1010536765994170e+00   1.0799654050180811e+00   1.0634688177260736e+00   1.1054105946000390e+00   1.1021288559135993e+00   1.0909882104553357e+00   1.0994882921611704e+00   1.1053259341445034e+00   1.1083922471260883e+00   1.1079867884910410e+00   1.1003298201984939e+00   1.1080067564447671e+00   1.1074699117935052e+00   1.1116195874049615e+00   1.1071166300596817e+00   1.1080909269533119e+00   1.1065686810027318e+00   1.0895204734941244e+00   1.1068267054277514e+00   1.1062797906647495e+00   1.1152722625000413e+00   1.1057680803188732e+00   1.1019278676021869e+00   1.0892438807407665e+00   1.0858215678396979e+00   1.1099069678428630e+00   1.0890327408029703e+00   1.1000864750310930e+00   1.0497302545017946e+00   1.0871509378423547e+00   1.0878239886027965e+00   1.1030386774291985e+00   1.0926657370525568e+00   1.1102602804657715e+00   1.1086213257984865e+00   1.1094454079236553e+00   1.1030811889150600e+00   1.1002684203130779e+00   1.0853435124563087e+00   1.0966658505140414e+00   1.0933225669828832e+00   1.0884531875149286e+00   1.0767868222599242e+00   1.1018549300338210e+00   1.1040971583064112e+00   1.1032056577321194e+00   1.1138172872403604e+00   1.1092467197297500e+00   1.1061413445456032e+00   1.0878627157409970e+00   1.1036917080635851e+00   1.1103514899443081e+00   1.1000295796796142e+00   1.0996581722720113e+00   1.0768443423983627e+00   1.0823618136767001e+00   1.1228166049274524e+00   1.1273689664562492e+00   1.1114475349809112e+00   1.1219755956499216e+00   1.1232990192745225e+00   1.1036516046861207e+00   1.0979741234319977e+00   1.1170161426882723e+00   1.1006901917421623e+00   1.1008026010586507e+00   1.1000571694131123e+00   1.1289339694479295e+00   1.1157087953378642e+00   1.0873899897361310e+00   1.1262781456898847e+00   1.1176786912346879e+00   1.0835954930194363e+00   1.1064030366096111e+00   1.0643371507514698e+00   1.0872997352145726e+00   1.0950708458801164e+00   1.0866736507317554e+00   1.0805401773874244e+00   1.1111403725807034e+00   1.1392180734681425e+00   1.1014124591259662e+00   1.1111263671797502e+00   1.1073798131724122e+00   1.1015779959483936e+00   1.0764004206144908e+00   1.0962338941162522e+00   1.1091915238560568e+00   1.1069305482962770e+00   1.1296613555824560e+00   1.1211256256249249e+00   1.1336956140322345e+00   1.1140891699133622e+00   1.1242553874324488e+00   1.1205832747733713e+00   1.1028887247155141e+00   1.1176686834995526e+00   1.1197281324253379e+00   1.1264843560518456e+00   1.1473011886508071e+00   1.1151294091445767e+00   1.1306968236722377e+00   1.1342447978337178e+00   1.1066634260807815e+00   1.1069481606285887e+00   1.0917037794517579e+00   1.1345539206813713e+00   1.1272700453880862e+00   1.1051202038076158e+00   1.1138821134628518e+00   1.1090166369027188e+00   1.1080548036278692e+00   1.1109966566882272e+00   1.0748929445227557e+00   1.0892982712046697e+00   1.1215222908071683e+00   1.1202897710397357e+00   1.1147720518329025e+00   1.1113966728901716e+00   1.1192533728693215e+00   1.1158227312249027e+00   1.1017498490944575e+00   1.1062896575107468e+00   1.0997566114394690e+00   1.1008274770196693e+00   1.0956861848313233e+00   1.1073156190053350e+00   1.1077413646027940e+00   1.1069562201272831e+00   1.1034608384318993e+00   1.1053955882598083e+00   1.1407168422120675e+00   1.1151531566491892e+00   1.1290568210281267e+00   1.1093698299468948e+00   1.0936210906444004e+00   1.0829355263460201e+00   1.0978143144560437e+00   1.1065105234213912e+00   1.1051364812244189e+00   1.0880961805593012e+00   1.1061679531988731e+00   1.1044738739677069e+00   1.1011178370248962e+00   1.0990266897321608e+00   1.1022565409037863e+00   1.0913293966616673e+00   1.0907330172958638e+00   1.1047377661995312e+00   1.0992633404805217e+00   1.0903120281088734e+00   1.0935023224673937e+00   1.0971431065826727e+00   1.0964985573867605e+00   1.1074192549071540e+00   1.0992945751340830e+00   1.1101834098627652e+00   1.1006457111589676e+00   1.1023146735300655e+00   1.1043105794705754e+00   1.1022149196567179e+00   1.0989452265600059e+00   1.1015628843454817e+00   1.0907475113294403e+00   1.0756028003218734e+00   1.0867602756766270e+00   1.0957802302674522e+00   1.0891540175374963e+00   1.1113993698911655e+00   1.0941185542834599e+00   1.1041284740134887e+00   1.0847288751559105e+00   1.0701019792272364e+00   1.1075101346230596e+00   1.1103831934999846e+00   1.0598161102925305e+00   1.0641334461476262e+00   1.0881725072424184e+00   1.0773943309763163e+00   1.1035305836014209e+00   1.1073943037802814e+00   1.1142008437225808e+00   1.1049010122193861e+00   1.0774568350804845e+00   1.0795282020456733e+00   1.0810247753481195e+00   1.0725406312996080e+00   1.0436859185733043e+00   1.0802783920918233e+00   1.0818713189199036e+00   1.0755928573088172e+00   1.0712921481456172e+00   1.0569455000008150e+00   1.0448225213181490e+00   1.0578266684032240e+00   1.0605083605238608e+00   1.0487892731595163e+00   1.1078702017907445e+00   1.1062573319054165e+00   1.1019333934093181e+00   1.1079662584939827e+00   1.0998739826736685e+00   1.1093574108837534e+00   1.1120433298985262e+00   1.1026434371729299e+00   1.1153630740317069e+00   1.1045780937756773e+00   1.0989543480178088e+00   1.0925737136606710e+00   1.1104520115560241e+00   1.0993942592864698e+00   1.1063721888199394e+00   1.1048643863138088e+00   1.1086351191927053e+00   1.1027003572473009e+00   1.0913334482940555e+00   1.1100166010976986e+00   1.1008239068576406e+00   1.1013715246075420e+00   1.1249917537565564e+00   1.1141641150898720e+00   1.0988999975742337e+00   1.1043454556912775e+00   1.0972426409933722e+00   1.1073177672438332e+00   1.1060240219625139e+00   1.1034909280127418e+00   1.1119895380665579e+00   1.1196423415246981e+00   1.1016925038535959e+00   1.1017226551006620e+00   1.0950898198155410e+00   1.0561377741455120e+00   1.0496996245839376e+00   1.1032950788543729e+00   1.0931928958025219e+00   1.0874030099208438e+00   1.1019088178689103e+00   1.0924621216713448e+00   1.0970628894078522e+00   1.0907990765033526e+00   1.0790523641442433e+00   1.1031070021626312e+00   1.1006945132624046e+00   1.0680094302993441e+00   1.0806668225459759e+00   1.0934782733582491e+00   1.0864374349583374e+00   1.0907810400419782e+00   1.0927381080773522e+00   1.1109659211648446e+00   1.1183997448386751e+00   1.1181272666550652e+00   1.0856878789975970e+00   1.0734780646009399e+00   1.1030037059897848e+00   1.0998566590784344e+00   1.0913541528836825e+00   1.0834213312978538e+00   1.0674565226261186e+00   1.0926355574532089e+00   1.0868108501965514e+00   1.1037673395654268e+00   1.1183044598925100e+00   1.1079471461254358e+00   1.1003704686979459e+00   1.1290439753062727e+00   1.1268772472890851e+00   1.1048415353065855e+00   1.1027732545875326e+00   1.1049181275883542e+00   1.1232579675865115e+00   1.1203378261576120e+00   1.1182633210363728e+00   1.1128145874342104e+00   1.1063271492785847e+00   1.1204171233177038e+00   1.1151130264955524e+00   1.1034657660004514e+00   1.1059800879173740e+00   1.1172321365053304e+00   1.1146563139592141e+00   1.0869237104854867e+00   1.1022405956070029e+00   1.1074231911079881e+00   1.0980062964298776e+00   1.1201979690827408e+00   1.1079062750670117e+00   1.1110546168684345e+00   1.1059403580563150e+00   1.1200349804080922e+00   1.1194513213283155e+00   1.1299641029008645e+00   1.1043738404148700e+00   1.1062239516005850e+00   1.1132635070264447e+00   1.1112324777496405e+00   1.1140516786576777e+00   1.1025473231187435e+00   1.1015351324506966e+00   1.0967433776124313e+00   1.1060033528755546e+00   1.1011182235343826e+00   1.1009048519672631e+00   1.1100074386952603e+00   1.1063433446741775e+00   1.1073576456555061e+00   1.0950529712469785e+00   1.0996228404841215e+00   1.0820984425323841e+00   1.0940701129251642e+00   1.1102248249087250e+00   1.1094616518878742e+00   1.1086822177781968e+00   1.1091530472691264e+00   1.0734378758545564e+00   1.1071742466624594e+00   1.0918219884044420e+00   1.0820182308095176e+00   1.0820492023296007e+00   1.0670009035213035e+00   1.0952960550010242e+00   1.0967452645362790e+00   1.0973387445124736e+00   1.1092481837020045e+00   1.1351763367247623e+00   1.1531031787344441e+00   1.1079064271998060e+00   1.1023786228620092e+00   1.1000221858754862e+00   1.1217917826270345e+00   1.1252728153538183e+00   1.1337343110484341e+00   1.0846205509278113e+00   1.0962876299114197e+00   1.0914485588575753e+00   1.1010083866238511e+00   1.0968700593676981e+00   1.1044934523482179e+00   1.0951566898594940e+00   1.0866442758583681e+00   1.0889867270079914e+00   1.1092248295901164e+00   1.1064762175687930e+00   1.1037522205455248e+00   1.1025632183504630e+00   1.1256052323153956e+00   1.1359061350749458e+00   1.1536894137334002e+00   1.1534914339194333e+00   1.1112114210291948e+00   1.1117684614355283e+00   1.0925019586390630e+00   1.1082917936825460e+00   1.1184500734839653e+00   1.1316010128600102e+00   1.1051279093889257e+00   1.1125597758524666e+00   1.1170410950020848e+00   1.1156466386977795e+00   1.1129977950854555e+00   1.0969233747163880e+00   1.1417979596177390e+00   1.0892880928462134e+00   1.1060703660814193e+00   1.1101727731370168e+00   1.1093998875138547e+00   1.1109420220645922e+00   1.1068057205846658e+00   1.1116467004666661e+00   1.1152187121133863e+00   1.1101046506242782e+00   1.1227828753722706e+00   1.1175665004290287e+00   1.1387228367224695e+00   1.0982134636080034e+00   1.1023561134433648e+00   1.1069055936523029e+00   1.1095687062785993e+00   1.1006596270005875e+00   1.0904093392227510e+00   1.0923932880672285e+00   1.1022932793881670e+00   1.1526815837938398e+00   1.1030379204602954e+00   1.1096306660865796e+00   1.1122633288980743e+00   1.1072512733779867e+00   1.1108355157319700e+00   1.0851767110647079e+00   1.0839822141457032e+00   1.1128239206205435e+00   1.1103269808118261e+00   1.1128114998730871e+00   1.1014291956653468e+00   1.1018774167618248e+00   1.0998534581629278e+00   1.1023555641026115e+00   1.0853667330114343e+00   1.0891288939917985e+00   1.0918680329629387e+00   1.0900107480113324e+00   1.1009815908564113e+00   1.1126701425693148e+00   1.1074270015537409e+00   1.1104891809550057e+00   1.1056218619863782e+00   1.1095592752404186e+00   1.1074862681479527e+00   1.1126105225247760e+00   1.1202281733178807e+00   1.1155215280569695e+00   1.0998335723603962e+00   1.0990148590783124e+00   1.0963539981821824e+00   1.0986807074792520e+00   1.1326216034865726e+00   1.1295412388289006e+00   1.1460677069139180e+00   1.0853547263866072e+00   1.1048324188479781e+00   1.0882118128500415e+00   1.1145580115470863e+00   1.1199587169305083e+00   1.0982030487769352e+00   1.1009502207289339e+00   1.0847723152212201e+00   1.0893840484878508e+00   1.0853453544623022e+00   1.0939487166516122e+00   1.1131590015362283e+00   1.1156165279864465e+00   1.1055364381602277e+00   1.1242288233496656e+00   1.1055456209102039e+00   1.0997283743176791e+00   1.0990859371619406e+00   1.1017578243303108e+00   1.1054258811398707e+00   1.1145569671842799e+00   1.1049608412309329e+00   1.1091917988727027e+00   1.1050123877752518e+00   1.1051208293077768e+00   1.1112108873754860e+00   1.1393833043921213e+00   1.1209265138796884e+00   1.1167005360991411e+00   1.1314813467570952e+00   1.1095574983658831e+00   1.0973368891919819e+00   1.0693058676963469e+00   1.0785929571826465e+00   1.0899654791497579e+00   1.0987835916328637e+00   1.0969324744586073e+00   1.1037921369291801e+00   1.1143257032802201e+00   1.1065789421272330e+00   1.1028718546249323e+00   1.1087040073206087e+00   1.1083198781289154e+00   1.1340213868154041e+00   1.1538994345868996e+00   1.1006058706017736e+00   1.1037932443743805e+00   1.1165595304233464e+00   1.1043147332782168e+00   1.1229739729436412e+00   1.1185755809845177e+00   1.1000914049151402e+00   1.1002186547253476e+00   1.1038659680500504e+00   1.1007387367488299e+00   1.0984983408405744e+00   1.0792350726467337e+00   1.0767069487112522e+00   1.0975390267762477e+00   1.0972938639803782e+00   1.0885512242878306e+00   1.1172598669828464e+00   1.1233918441179063e+00   1.0696040822766730e+00   1.0667131883073915e+00   1.0645657356182081e+00   1.0503295191492918e+00   1.0500690879381080e+00   1.0447421567838227e+00   1.0668035773922533e+00   1.0677286179320731e+00   1.0776250132154610e+00   1.0579703130475899e+00   1.0883916237895188e+00   1.0742286701430142e+00   1.0648685472697552e+00   1.0769372500309795e+00   1.0765686469768048e+00   1.0630731726170244e+00   1.0645444394376575e+00   1.0666221888227094e+00   1.1154803584703465e+00   1.1240142708066432e+00   1.1094093066119322e+00   1.1024686146383076e+00   1.0957747919391354e+00   1.1088926733060966e+00   1.0849806705202802e+00   1.0916456409456554e+00   1.1248792805652159e+00   1.1346846515207385e+00   1.0712812113348837e+00   1.0672043050225382e+00   1.0833832420078993e+00   1.0932144338486189e+00   1.0970720354320913e+00   1.1055809973991326e+00   1.1018237521555987e+00   1.0899622624657577e+00   1.1421101065397714e+00   1.1293835320968639e+00   1.1338536281880947e+00   1.1279045041617406e+00   1.1465499857582799e+00   1.1529325272378574e+00   1.1419700849441050e+00   1.1260754248891682e+00   1.1248253180506460e+00   1.1346926482443247e+00   1.1221911314713013e+00   1.1332086621378217e+00   1.1459475697170423e+00   1.1318032852391005e+00   1.1272875995369767e+00   1.1317229587541606e+00   1.0702506395678901e+00   1.0552666632912910e+00   1.0668565591798416e+00   1.0591207666733649e+00   1.0484028853701082e+00   1.0568856953379326e+00   1.0286043466703252e+00   1.0286326012768234e+00   1.0435726619761097e+00   1.0496892465868199e+00   1.1032163970670348e+00   1.1225850433602838e+00   1.0861582547036166e+00   1.0766024617875454e+00   1.0974200131301459e+00   1.0907997585236207e+00   1.1114918846109032e+00   1.0795078378361640e+00   1.0772260217927867e+00   1.1058057987252714e+00   1.0904003266245224e+00   1.0986844726368268e+00   1.1033887312498387e+00   1.0829236948246297e+00   1.0904100131529291e+00   1.0916872186299891e+00   1.0934011576261007e+00   1.0700455057948417e+00   1.0799013629190168e+00   1.1452704649584560e+00   1.1306035765446554e+00   1.1204214794422804e+00   1.1270277515579399e+00   1.1346216318476767e+00   1.1228335151147850e+00   1.1040714084228287e+00   1.1040301712915539e+00   1.0778773650942965e+00   1.0820518962433590e+00   1.0857654773274390e+00   1.0870444215940454e+00   1.1127854863698847e+00   1.0861228917685681e+00   1.1120344548158656e+00   1.1242263763241900e+00   1.1324526831421982e+00   1.0939784773528169e+00   1.1185465825803602e+00   1.1154390551514550e+00   1.1542281671627455e+00   1.1367202437651687e+00   1.1076678690604036e+00   1.1545474452352793e+00   1.1365525319634489e+00   1.1026078905581218e+00   1.1012309627819554e+00   1.1003086500912034e+00   1.0983386025024109e+00   1.1021290715205609e+00   1.0943054420923770e+00   1.1004994077255343e+00   1.1077181682662167e+00   1.1034811464400647e+00   1.1292999379543796e+00   1.0904126727372818e+00   1.0898673185450223e+00   1.0955012441921581e+00   1.1116452583038166e+00   1.1274927996061794e+00   1.1130652231268163e+00   1.0885567117097730e+00   1.1059281985452558e+00   1.1022256965541481e+00   1.1280033033919250e+00   1.1120687908666369e+00   1.0902746540071040e+00   1.0823074295087498e+00   1.0895629352473990e+00   1.1036770790097479e+00   1.1098076540342445e+00   1.0917487440767955e+00   1.1057009489897622e+00   1.0929296485152711e+00   1.1118908691625047e+00   1.1167266488944381e+00   1.0887952060023487e+00   1.0988640021341871e+00   1.0981132486942624e+00   1.0939760454718963e+00   1.1092890924974113e+00   1.1015280606122491e+00   1.1106893092309955e+00   1.1123845760015001e+00   1.1078581443675981e+00   1.0861668927081600e+00   1.1210978963334399e+00   1.1222726660435602e+00   1.1041134093586995e+00   1.1065470655828831e+00   1.1038520842881094e+00   1.1079805822166473e+00   1.1050054895946884e+00   1.1030243137255846e+00   1.1092646647494273e+00   1.0779324182863221e+00   1.0922929249833309e+00   1.0675489319643863e+00   1.0787769192657033e+00   1.0769346162246782e+00   1.0756983678116561e+00   1.1239790701758596e+00   1.1114738161321058e+00   1.1427481103552952e+00   1.1326321955096721e+00   1.1027881631646113e+00   1.1061627367253619e+00   1.1001259526711673e+00   1.1069389247037429e+00   1.1020865473373236e+00   1.1449744320939963e+00   1.1282347684688758e+00   1.1048077622708821e+00   1.0922969376180940e+00   1.0996241953215355e+00   1.0882994705776237e+00   1.1208986224273338e+00   1.1262136233409099e+00   1.1089381933236255e+00   1.1030647754571155e+00   1.0656999244094389e+00   1.0831088209714734e+00   1.1096124626729560e+00   1.1105918155991861e+00   1.1121533323949813e+00   1.1091140999405895e+00   1.0850233738486053e+00   1.0930513752574069e+00   1.1023044040096259e+00   1.1128269518578613e+00   1.0991454036464325e+00   1.1022707550541393e+00   1.1072895327284837e+00   1.1052769154590643e+00   1.1013645629158675e+00   1.1049616422146895e+00   1.1053972627855819e+00   1.1011957498460458e+00   1.0994835344377536e+00   1.0903897367101181e+00   1.1068553742863572e+00   1.0604007542070182e+00   1.0692881895040696e+00   1.1124429317379902e+00   1.1204380588010416e+00   1.0865090684690697e+00   1.0915223170040553e+00   1.1009590490319059e+00   1.1024972429950028e+00   1.1011935604394090e+00   1.1047187568739123e+00   1.1109413576006999e+00   1.1022433851836326e+00   1.1035136661509393e+00   1.1077206063406628e+00   1.1223364231691497e+00   1.1292332206791040e+00   1.0991665116258775e+00   1.0902965208524185e+00   1.1010857662837432e+00   1.1084868625340032e+00   1.1024211265671480e+00   1.0956704524610761e+00   1.0513103196073337e+00   1.1370664194645297e+00   1.1349343555937874e+00   1.1179130893376255e+00   1.0890306676985753e+00   1.1013403962150750e+00   1.0978488866280771e+00   1.1053155916891546e+00   1.0929443349556545e+00   1.1026037918751657e+00   1.0921746005994144e+00   1.1085051608594179e+00   1.1048058607901607e+00   1.1049892144105553e+00   1.1087407632145125e+00   1.0599169422442012e+00   1.1049053806730640e+00   1.1175513364976080e+00   1.1070820462178828e+00   1.1059127003946108e+00   1.1149999074822983e+00   1.1107240146274389e+00   1.1018372133432692e+00   1.0976971631104757e+00   1.1055049870577409e+00   1.1093931881637276e+00   1.1068949548090683e+00   1.1153207181151967e+00   1.09105445947023