<?xml version="1.0"?>
<VTKFile type="UnstructuredGrid"  version="0.1"  >
<UnstructuredGrid>
<Piece  NumberOfPoints="1109" NumberOfCells="1972">
<Points>
<DataArray  type="Float64"  NumberOfComponents="3"  format="ascii">0 1 0  0 0 0  1 0 0  1 1 0  0.8968458805257912 0.5501332934257217 0  0.9 0.5 0  0.8968458805257911 0.4498667065742781 0  0.8874332644514524 0.4005240451340579 0  0.8719105943553006 0.3527501789261288 0  0.8505226720175453 0.3072985303593135 0  0.823606797749979 0.2648858990830106 0  0.7915874509685645 0.2261811576285244 0  0.7549695958994758 0.1917947028896841 0  0.7143307179915988 0.162268829799194 0  0.6703117166260287 0.138069179013592 0  0.6236067977499788 0.1195773934819385 0  0.5749525258342897 0.1070850997085245 0  0.5251162078117251 0.1007893086286913 0  0.4748837921882747 0.1007893086286913 0  0.4250474741657101 0.1070850997085245 0  0.376393202250021 0.1195773934819386 0  0.3296882833739712 0.1380691790135921 0  0.2856692820084015 0.1622688297991939 0  0.2450304041005242 0.1917947028896843 0  0.2084125490314353 0.2261811576285246 0  0.1763932022500209 0.2648858990830109 0  0.1494773279824546 0.3072985303593139 0  0.1280894056446994 0.3527501789261288 0  0.1125667355485475 0.4005240451340581 0  0.1031541194742088 0.4498667065742783 0  0.09999999999999998 0.5 0  0.1031541194742089 0.5501332934257218 0  0.1125667355485476 0.5994759548659421 0  0.1280894056446995 0.6472498210738713 0  0.1494773279824546 0.6927014696406861 0  0.176393202250021 0.7351141009169893 0  0.2084125490314355 0.7738188423714756 0  0.2450304041005241 0.8082052971103157 0  0.2856692820084012 0.837731170200806 0  0.3296882833739709 0.8619308209864078 0  0.3763932022500212 0.8804226065180615 0  0.4250474741657101 0.8929149002914756 0  0.4748837921882746 0.8992106913713087 0  0.5251162078117254 0.8992106913713087 0  0.5749525258342899 0.8929149002914755 0  0.623606797749979 0.8804226065180614 0  0.6703117166260291 0.8619308209864078 0  0.7143307179915986 0.8377311702008061 0  0.754969595899476 0.8082052971103157 0  0.7915874509685646 0.7738188423714755 0  0.823606797749979 0.7351141009169893 0  0.8505226720175454 0.6927014696406861 0  0.8719105943553006 0.6472498210738712 0  0.8874332644514524 0.599475954865942 0  0 0.5 0  1 0.5 0  0.5 0 0  0.5 1 0  0 0.75 0  0 0.25 0  1 0.25 0  1 0.75 0  0.75 0 0  0.25 0 0  0.25 1 0  0.75 1 0  0 0.625 0  0 0.375 0  1 0.375 0  1 0.625 0  0.625 0 0  0.375 0 0  0.375 1 0  0.625 1 0  0.125 0 0  0.875 0 0  1 0.125 0  0 0.875 0  0.125 1 0  0.875 1 0  0 0.125 0  1 0.875 0  0.1443946775413214 0.1213187937376868 0  0.8556053224586788 0.8786812062623132 0  0.8556053224586785 0.1213187937376867 0  0.1275360334547992 0.8724639665452008 0  0.9261623581710797 0.1875 0  0.09234641934319709 0.2082689144241477 0  0.9076535806568029 0.7917310855758523 0  0.08970099689351971 0.7603836651344988 0  0.2182130526099624 0.9079579669686324 0  0.07086411995581518 0.07086411995581518 0  1 0.0625 0  0.9375 0 0  0.0625 1 0  0 0.9375 0  0.9291358800441849 0.9291358800441849 0  0.7304772975931939 0.08076335202639119 0  0.2695227024068061 0.08076335202639115 0  0.7697819974699807 0.9105968468121929 0  1 0.6875 0  1 0.3125 0  0.06784168511078095 0.2966417331842567 0  0 0.6875 0  0.1875 0 0  0.8125 0 0  0.9212459744619301 0.2681742056774029 0  0.6875 1 0  0.3125 1 0  0.922097136530977 0.07790286346902295 0  0.9261304603587264 0.7150772115644075 0  0 0.8125 0  0.07432186328509671 0.9256781367149033 0  0.06317182982585627 0.84375 0  0.8548473925302104 0.1928285354262928 0  0.6710199663399635 0.9319471281137308 0  0.2914274450692525 0.9272721924131209 0  0.9226595291420543 0.8597667107019437 0  0.0773404708579461 0.1402332892980563 0  0.8125 1 0  0.06054886616517211 0.65625 0  0.9362657027224049 0.3336129027547622 0  0.1841195715992005 0.8363784907223111 0  0.6625377124131507 0.06023416665880475 0  0.3125 0 0  0.34375 0.06016090820395464 0  0.2153846372786545 0.1270381302276244 0  0.8024953780019808 0.07187189600048093 0  0.1546395545758083 0.9367961467266345 0  0.5625 1 0  0.4375 0 0  0.4375 1 0  0.5625 0 0  0.1844766880788185 0.06724298999790632 0  0.9369725282473387 0.6419809811402504 0  0.791523351719164 0.1369023590147849 0  0.8285961364903059 0.9374018659319692 0  1 0.4375 0  0 0.4375 0  1 0.5625 0  0 0.5625 0  0 0.3125 0  1 0.8125 0  0.0625 0 0  0 0.0625 0  0 0.1875 0  1 0.1875 0  1 0.9375 0  0.9375 1 0  0.6875 0 0  0.1875 1 0  0.8126465958421825 0.8329348088176629 0  0.1550798535647612 0.1867680086445373 0  0.8631981559835366 0.06032295929500282 0  0.1449089435554358 0.7884432695884597 0  0.3538206140027237 0.9399564250283491 0  0.944997661525766 0.4151121561005554 0  0.05500233847423393 0.5848878438994446 0  0.0520912947951912 0.40625 0  0.59375 0.05063263303723638 0  0.6113142584645842 0.9411585052804305 0  0.402402637527157 0.05243074290023167 0  0.05237021982595785 0.7146869946988353 0  0.9514280734197595 0.53125 0  0.04857192658024048 0.46875 0  0.1138995451272664 0.2618291859344329 0  0.1276043399716366 0.06698080255494471 0  0.9496852823490703 0.5873315358652272 0  0.7164226875694513 0.8936714072472519 0  0.728445758907293 0.9483406189827143 0  0.05037626111865807 0.3500677784994627 0  0.9425695009311538 0.1320174568820216 0  0.4108317852857326 0.9488345682840208 0  0.5398628985995173 0.04893133705064829 0  0.46875 0.04573672429098317 0  0.4652931800096448 0.9529811055869081 0  0.53125 0.9542632757090168 0  0.8785971272885281 0.7441734326495726 0  0.8518416617605847 0.7931754903661554 0  0.04183404050302509 0.78125 0  0.7612395846848441 0.8595654412716175 0  0.2310588911243982 0.8579303197600836 0  0.04148050284378633 0.21875 0  0.9494864361787021 0.7612608042848362 0  0.9500000000000001 0.4721339993173143 0  0.04999999999999998 0.5278660006826856 0  0.8781553628189985 0.9246252444972441 0  0.8731991046476956 0.2435858407989878 0  0.09811738497342513 0.6912987895906199 0  0.78125 0.9600244726998853 0  0.09951704281279977 0.8094116423849811 0  0.1723930843372325 0.8914409560171174 0  0.21875 0.9592823984315264 0  0.8808053857873319 0.8333253975559158 0  0.8963977713581862 0.1485308906960134 0  0.9538351164349618 0.2296733193971382 0  0.9502525126806526 0.8180081280125184 0  0.2312490385075739 0.04727387874777968 0  0.2715914187620846 0.8835921407480765 0  0.8075381809024645 0.880775593205643 0  0.71875 0.03518728418751645 0  0.28125 0.03518728418751642 0  0.7646042202168328 0.04444036111707996 0  0.9023329991729737 0.03666350737326187 0  0.03401531498238862 0.15625 0  0.1188530488980251 0.1590855287670435 0  0.9585274478449393 0.2940602659505009 0  0.122777080947294 0.7293581095092172 0  0.9670375667902916 0.09375 0  0.2005134857209875 0.1810792546569654 0  0.04567406045797464 0.8878541658538743 0  0.09375 0.966869578205468 0  0.1562008719445321 0.03232788333739163 0  0.8953932105853648 0.3139420780646932 0  0.7990572522972532 0.1815363722387022 0  0.0968875242781685 0.03463409819727443 0  0.03223722036876893 0.09375 0  0.9004223587754672 0.9633108159792649 0  0.9677627796312311 0.90625 0  0.1015654613822437 0.1029847255361322 0  0.9612688796250578 0.9612688796250578 0  0 0.03125 0  0.03125 0 0  0.04144949962501476 0.9585505003749852 0  0.9558898336496962 0.04411016635030385 0  0.9068917513393455 0.6748714165270275 0  0.1368346895292699 0.830580202512584 0  0.1325215314767946 0.2232188145997174 0  0.07053058491102715 0.2523250971165124 0  0.28125 1 0  0.2618257196382527 0.9585732837283344 0  0.08628220552312613 0.8784418410901162 0  0.6885162251696433 0.09694521726220126 0  0.7451861497985837 0.1260293295250874 0  0.313422114933215 0.09491014745286984 0  0.2604190570795071 0.1249189143540631 0  0.9242490330121279 0.3761177923443456 0  0.8294827367589617 0.1534479284350518 0  0 0.28125 0  0.1085704015556412 0.3026527142683792 0  0.6454377779583714 0.9642341400769985 0  0.1735682150935896 0.1501527832362767 0  0.9118639212665761 0.2270478094042325 0  0.9675029085737417 0.7231519194735394 0  0.9540854621793986 0.6818714685662951 0  0.3411855214203015 0.9011195850022233 0  0.2203778463487443 0.08657146517086198 0  0.04103470738435357 0.04103470738435357 0  0.5692124642834736 0.9350661676969988 0  0.1143804055696223 0.9319617439078584 0  0.08871656954519293 0.3663659127109965 0  0.9630811790855398 0.168250321868886 0  0.8941478109554366 0.1077225817667272 0  0.7685953432959879 0.09339992494635127 0  0.9613334331586147 0.8673647296762501 0  0.84375 0 0  0.8276419188889859 0.03874003995670209 0  0.4987074584280061 0.9312004428379874 0  0.4999999999999999 0.07012294039149713 0  0.906353444207591 0.8962759602721756 0  0.8317000502825128 0.2255938539236174 0  0.060982293117454 0.1847248153131282 0  0.84375 1 0  0.8601163332513452 0.9625346208269469 0  0.07696867235812772 0.6190771663714262 0  0.03866375363197156 0.624370156890833 0  0.386395970129115 0.9182613855572013 0  0.59375 1 0  0.03763634871355165 0.2725691404761272 0  1 0.34375 0  0.9619513789393942 0.3638256452123659 0  0.1705891391383945 0.2215719862571997 0  0.2993345649440622 0.9643978827856838 0  0.2548390693531445 0.917543736811073 0  0.4376701674058487 0.06983678836603174 0  0.6249880952696493 0.07804203554412367 0  0.8891633930840495 0.7080603551933189 0  0 0.65625 0  0.8857454763750297 0.2783067670731572 0  1 0.65625 0  0 0.59375 0  0.9147359581367025 0.7498372322849914 0  0.34375 1 0  0.08128436453222096 0.3306040779845135 0  0.8370204413255111 0.08803482611562097 0  0.4399236117509409 0.9264634199869409 0  0.3763243110806382 0.08093997073896844 0  1 0.78125 0  0.3058827875685617 0.8943637152968825 0  0.891027260700638 0.1971556622156984 0  0.1814462944911871 0.9630031969500565 0  0.1812917788273262 0.1067749496803429 0  0.2291605611046911 0.1598957180171764 0  0.630525566101238 0.03837025329843378 0  0.03363261960646192 0.92260900189631 0  0.2960793559902691 0.1260912307633523 0  0.03663553287191564 0.8179172045954961 0  0.02996523389584273 0.8560987956667739 0  0.09880166525369549 0.8450583124835681 0  0.6923212173088138 0.150169004406393 0  0.502
[...]
<CellData  Scalars="detF"> 
<DataArray  type="Float64"  Name="detF"  format="ascii">1.1433602317240819e+00   1.1674303115368050e+00   1.1904841316812633e+00   1.1834962516847047e+00   1.1934631478279243e+00   1.2252440435188234e+00   1.1839634187281978e+00   1.1692835302887403e+00   1.1794483477442594e+00   1.2046604961779546e+00   1.1939955641671802e+00   1.1639445198963037e+00   1.1915308840762069e+00   1.1976493313380283e+00   1.1727916339267026e+00   1.1829042728485588e+00   1.1829327270108903e+00   1.2192404447901106e+00   1.1440788388560326e+00   1.1706125937575425e+00   1.1638935103164616e+00   1.1791069366242333e+00   1.1972899754633071e+00   1.1706813417939534e+00   1.1827317665300285e+00   1.1448821522173072e+00   1.1661412830398026e+00   1.1621573838606862e+00   1.1538659139244360e+00   1.1783808563407845e+00   1.1978305965781637e+00   1.1802683080294998e+00   1.1742303719479981e+00   1.1882722284552645e+00   1.2094167296374818e+00   1.1275857677178414e+00   1.1817377883958966e+00   1.1945692709817806e+00   1.1110462796338443e+00   1.1537883552098442e+00   1.1580399091043911e+00   1.1143075761831787e+00   1.1811375071654733e+00   1.1862380269133201e+00   1.1752842591615973e+00   1.1907779661129561e+00   1.1856200610844845e+00   1.2105018599375481e+00   1.1605254925939454e+00   1.1706920999503807e+00   1.1763718997944770e+00   1.1926279716499542e+00   1.1817511709482293e+00   1.1591485146529601e+00   1.1712305604735773e+00   1.1839460813473304e+00   1.1769686149957121e+00   1.1966714816900952e+00   1.1780078387146764e+00   1.1092427467888535e+00   1.1153429558609405e+00   1.1571009998012278e+00   1.1810596975855907e+00   1.1496142958480942e+00   1.1177257217123262e+00   1.1915545763476778e+00   1.1690582530474030e+00   1.1310545163480612e+00   1.1769434830882846e+00   1.1715873699476942e+00   1.1792036849053134e+00   1.1794824253404390e+00   1.1599839666882861e+00   1.1864562819471063e+00   1.1816988873264689e+00   1.1845350299442241e+00   1.1804031403294977e+00   1.1854129506517919e+00   1.1867358238423924e+00   1.1641816047232267e+00   1.1903073430996569e+00   1.1774378636779048e+00   1.1942555547962506e+00   1.1741919763092306e+00   1.1797776546000325e+00   1.1664929784521445e+00   1.1592720829916690e+00   1.1824655966669795e+00   1.1601583983303829e+00   1.1788465163340216e+00   1.0929504004552233e+00   1.1627773055248580e+00   1.1594340872171041e+00   1.1853132372391455e+00   1.1708422388851225e+00   1.1719386985198181e+00   1.1718891591907090e+00   1.1939583876858735e+00   1.1788356380591258e+00   1.1835269313210171e+00   1.1523767300819332e+00   1.1713378505522933e+00   1.1714689728044370e+00   1.1629140991897224e+00   1.1405282979517990e+00   1.1609880863592321e+00   1.1604915316240367e+00   1.1888786096864845e+00   1.2071222291520438e+00   1.1750063942578983e+00   1.1832901778489326e+00   1.1257045689115155e+00   1.1758121276844693e+00   1.2019743485452248e+00   1.1846742986175247e+00   1.1807722779513017e+00   1.1402873830051166e+00   1.1540287514884915e+00   1.2067266289134406e+00   1.2168837040945657e+00   1.1826865611082260e+00   1.2053220621331238e+00   1.2053349679667233e+00   1.1880867032800932e+00   1.1754104981426825e+00   1.1924898283176766e+00   1.1810023459140226e+00   1.1764984623352619e+00   1.1849872467658025e+00   1.2196392098490718e+00   1.1893652280338052e+00   1.1296938664077130e+00   1.2123208830259433e+00   1.2001340430709020e+00   1.1510140198623089e+00   1.1792779415377848e+00   1.1201998338065045e+00   1.1555599341547658e+00   1.1684210655001956e+00   1.1575135779723835e+00   1.1507830171949121e+00   1.1803730810884256e+00   1.2437176874005174e+00   1.1769803339716416e+00   1.2034853594143398e+00   1.1972288442792169e+00   1.1860626389783493e+00   1.1390981832964406e+00   1.1795785942122865e+00   1.1936086514736766e+00   1.1852104081934416e+00   1.2227998619397402e+00   1.2063179352297135e+00   1.2267907416978272e+00   1.1898027712649411e+00   1.2048935970481667e+00   1.1976633388922233e+00   1.1636503504019267e+00   1.1939132917987547e+00   1.2018763019091141e+00   1.2152481853115651e+00   1.2561265687343612e+00   1.1894142415906452e+00   1.2258716564795180e+00   1.2324858521864299e+00   1.1894319064757759e+00   1.1838720320399094e+00   1.1708085707809388e+00   1.2332117551751618e+00   1.2165480761021030e+00   1.1797583964927849e+00   1.2047185013603532e+00   1.1900179653706549e+00   1.1856289496836407e+00   1.1888400398347516e+00   1.1347084827686986e+00   1.1652451919683029e+00   1.2026856586460615e+00   1.1973552671659435e+00   1.1903833491938107e+00   1.1819419610735988e+00   1.2018354310585586e+00   1.2084261068376021e+00   1.1837071586736614e+00   1.1962439063876500e+00   1.1819998330474726e+00   1.1772214337177271e+00   1.1701671517567129e+00   1.1860548795840873e+00   1.1869125777264304e+00   1.1853117185099462e+00   1.1817074709243973e+00   1.1811017037951677e+00   1.2409323713478486e+00   1.1897930383344091e+00   1.2188698840379770e+00   1.1726083346891707e+00   1.1744137041179774e+00   1.1545429643790268e+00   1.1544357282886171e+00   1.1864873672133329e+00   1.1830970561757468e+00   1.1578235831802099e+00   1.1894464218125089e+00   1.1835058523777426e+00   1.1789983079530237e+00   1.1744044190473868e+00   1.1796766821159252e+00   1.1688009989405042e+00   1.1666271275370603e+00   1.1904393291930098e+00   1.1844776814846358e+00   1.1600587474361297e+00   1.1676221323112377e+00   1.1727583560149770e+00   1.1710420415756495e+00   1.1741220098451703e+00   1.1494379974661191e+00   1.1877065199080041e+00   1.1832417697446114e+00   1.1777346031512983e+00   1.1803307455295755e+00   1.1783994506382078e+00   1.1751418293169540e+00   1.1774269126500359e+00   1.1666027273059780e+00   1.1361303714329845e+00   1.1552637535271191e+00   1.1749177639634529e+00   1.1662984854914751e+00   1.1912839811926068e+00   1.1454510779718987e+00   1.1808902584432690e+00   1.1582491841266698e+00   1.1308571910129861e+00   1.1965095829749997e+00   1.1995978507785718e+00   1.1123526640413883e+00   1.1182563908324130e+00   1.1624259595401396e+00   1.1386778149227144e+00   1.1751957425305015e+00   1.1775074842625433e+00   1.2098006595512603e+00   1.1890512272576212e+00   1.1433549865685380e+00   1.1486120991076070e+00   1.1499284467798594e+00   1.1321044065783952e+00   1.0798899392869847e+00   1.1495338514194009e+00   1.1526990168589297e+00   1.1409482291573645e+00   1.1318768373758752e+00   1.1036018768011144e+00   1.0820286130419914e+00   1.1085824020310466e+00   1.1130236805491802e+00   1.0909726091214071e+00   1.1764037084784087e+00   1.1946061389420184e+00   1.1884993747959853e+00   1.1972075966181526e+00   1.1804941540636169e+00   1.1863273878661154e+00   1.1881807316702706e+00   1.1714353422612318e+00   1.2046639161942392e+00   1.1803980345032155e+00   1.1814549547012483e+00   1.1725507128554462e+00   1.1882954790206368e+00   1.1635967662790041e+00   1.1845060268842316e+00   1.1782279110734162e+00   1.1964515487739356e+00   1.1754155058904652e+00   1.1323986322737816e+00   1.1772129291008400e+00   1.1859546721503120e+00   1.1873993974085508e+00   1.2206507071146866e+00   1.2001348477391072e+00   1.1583273026378333e+00   1.1749549672394979e+00   1.1785826642203110e+00   1.1944239292168848e+00   1.1876841310125039e+00   1.1832990714035931e+00   1.1912613060654500e+00   1.2080168642843836e+00   1.1649273839168091e+00   1.1811856311727642e+00   1.1705740876451398e+00   1.1051115048306974e+00   1.0928066408757615e+00   1.1631268262695660e+00   1.1725731342162735e+00   1.1623602053856013e+00   1.1575108405002437e+00   1.1654092757539711e+00   1.1726791787223294e+00   1.1686010851870392e+00   1.1482048142702379e+00   1.1801639280280001e+00   1.1755231871803196e+00   1.1240729302708119e+00   1.1491733142664668e+00   1.1678754738388801e+00   1.1541067898381214e+00   1.1626185588820237e+00   1.1645927835746575e+00   1.1831187259999560e+00   1.1922527594291126e+00   1.1909344707156853e+00   1.1594605292259907e+00   1.1368512327483722e+00   1.1758257643526118e+00   1.1805657962867389e+00   1.1634280092232108e+00   1.1487797750877824e+00   1.1214968793752069e+00   1.1673957966853219e+00   1.1556023315164010e+00   1.1712155656902090e+00   1.2028599076237758e+00   1.1741830288588735e+00   1.1519908403912371e+00   1.2208621459531874e+00   1.2182465244361342e+00   1.1830218226284375e+00   1.1747466616148585e+00   1.1707575645138828e+00   1.2177016444110103e+00   1.2073433023743263e+00   1.2033340772705312e+00   1.2060792317006055e+00   1.1949974389219160e+00   1.2101375281961706e+00   1.1976933895694000e+00   1.1800747839077190e+00   1.1838565477646841e+00   1.1894688960273845e+00   1.1908630073783548e+00   1.1242231455198053e+00   1.1585128760986159e+00   1.1932970345924430e+00   1.1592507718840834e+00   1.2099427265922196e+00   1.1878567654675307e+00   1.1881241270401932e+00   1.1847422896880420e+00   1.2037853814006763e+00   1.2004085817917363e+00   1.2222378808415655e+00   1.1752715659005242e+00   1.1823035493989837e+00   1.1945736476966440e+00   1.1851642239806572e+00   1.1969837434432939e+00   1.1679333377094812e+00   1.1804152620808812e+00   1.1767026720253502e+00   1.1665209586090917e+00   1.1601881379250247e+00   1.1553649385461664e+00   1.1777605298194620e+00   1.1694909992284994e+00   1.1799390985831963e+00   1.1764068217525605e+00   1.1786938319797331e+00   1.1476208044205680e+00   1.1722614495050003e+00   1.2034553015738529e+00   1.2010221407056143e+00   1.1927954394432532e+00   1.1829428889123890e+00   1.1368634841074530e+00   1.1717560074094964e+00   1.1361965599235477e+00   1.1473286611920850e+00   1.1477199208595343e+00   1.1206954037791745e+00   1.1764890872843936e+00   1.1781465382776439e+00   1.1581245792034638e+00   1.1799803541599883e+00   1.2342851397421435e+00   1.2650640852045105e+00   1.1665616118697564e+00   1.1557824685223685e+00   1.1580532128639276e+00   1.2080770765622912e+00   1.2173254280377928e+00   1.2311978958319727e+00   1.1506060209712503e+00   1.1775952947354669e+00   1.1662743638298729e+00   1.1832638657639394e+00   1.1738340999998815e+00   1.1909018995625951e+00   1.1743574589550649e+00   1.1614087743939421e+00   1.1645731559161405e+00   1.1881626811947859e+00   1.1804052845045350e+00   1.1808057978112168e+00   1.1774250883593342e+00   1.2106137963204677e+00   1.2305854956764242e+00   1.2662260285904277e+00   1.2657091135804399e+00   1.1915829847799568e+00   1.1928163599157862e+00   1.1426145027601675e+00   1.1700208739078490e+00   1.2025223208495561e+00   1.2314353310087887e+00   1.1920116802761600e+00   1.2067927007932848e+00   1.1939521922937035e+00   1.1979137932010784e+00   1.1797563846212107e+00   1.1482326298609924e+00   1.2475010204055226e+00   1.1665885389640906e+00   1.1962070921415529e+00   1.1787205028655776e+00   1.1759959642802864e+00   1.1883951078573793e+00   1.1904244430347690e+00   1.1932897533247899e+00   1.1974226536533537e+00   1.1826247078885703e+00   1.2131414810839787e+00   1.2007061853167003e+00   1.2428083914512449e+00   1.1539799909050732e+00   1.1886069750038379e+00   1.1938467371726902e+00   1.1871093130702906e+00   1.1757137054548923e+00   1.1612654846459682e+00   1.1643899059338407e+00   1.1543231109546706e+00   1.2645771128355854e+00   1.1627145996672945e+00   1.1857041733728841e+00   1.1949363041194860e+00   1.1714963031332370e+00   1.1787874091946020e+00   1.1533803223160923e+00   1.1506526721850545e+00   1.2062946468676958e+00   1.2013973278959649e+00   1.2047110588574670e+00   1.1870025593471882e+00   1.1884247950844142e+00   1.1828087268521852e+00   1.1885710786900334e+00   1.1540655243949987e+00   1.1592520065302681e+00   1.1699740346765943e+00   1.1666118256183551e+00   1.1843795777230584e+00   1.2054909352050938e+00   1.1951047077576471e+00   1.1984535085978518e+00   1.1718726507533610e+00   1.1774211450617444e+00   1.1822780210489237e+00   1.1964280763121660e+00   1.2092597634049518e+00   1.1975123042435465e+00   1.1771727185616561e+00   1.1795587024740817e+00   1.1706857251586056e+00   1.1735151735884430e+00   1.2331447886657902e+00   1.2238394058353270e+00   1.2545620698759561e+00   1.1229590820171624e+00   1.1716296828675696e+00   1.1307032103714154e+00   1.1965666173199379e+00   1.2090207764259340e+00   1.1774817571028540e+00   1.1812751193632631e+00   1.1516033509296864e+00   1.1595950989800199e+00   1.1596224783980293e+00   1.1714808328810293e+00   1.1906356270437817e+00   1.1950389576755567e+00   1.1701970819884142e+00   1.2067947085425776e+00   1.1779415281201997e+00   1.1750395303544396e+00   1.1771975831843642e+00   1.1790630508666091e+00   1.1851290341687932e+00   1.2021450620071592e+00   1.1865111782864315e+00   1.1801061927780192e+00   1.1772431830333712e+00   1.1725990841528342e+00   1.1852595338443905e+00   1.2439935774717095e+00   1.2076669598061667e+00   1.1984772698249253e+00   1.2250588320235238e+00   1.1865892663119577e+00   1.1577084015057448e+00   1.1264464199096893e+00   1.1412017321057824e+00   1.1631667470501734e+00   1.1811779276500394e+00   1.1740833798809702e+00   1.1820356138154970e+00   1.2095410613010333e+00   1.1899785345065943e+00   1.1805741324021530e+00   1.1858180856160010e+00   1.1890044824312644e+00   1.2274897709387000e+00   1.2665140191291202e+00   1.1807809106794169e+00   1.1831774490758584e+00   1.2105708987554156e+00   1.1888739883990320e+00   1.2121917242184270e+00   1.2053928192826515e+00   1.1849677989107865e+00   1.1857800371376623e+00   1.1774429258398680e+00   1.1677560383705656e+00   1.1743079969141057e+00   1.1441796312965746e+00   1.1377341867445452e+00   1.1720970909033017e+00   1.1719535642559269e+00   1.1590127568744506e+00   1.2078933360258637e+00   1.2179837198342605e+00   1.1252062661978350e+00   1.1225170586096693e+00   1.1205054299088315e+00   1.0936221224592266e+00   1.0938506834061650e+00   1.0817921339002137e+00   1.1234618280891129e+00   1.1219498129088903e+00   1.1413710820245460e+00   1.1057579090655574e+00   1.1585437000579146e+00   1.1343412221403077e+00   1.1204482799984972e+00   1.1381180075879282e+00   1.1395214979057986e+00   1.1172501553197716e+00   1.1199001849470847e+00   1.1198944958157633e+00   1.2049419005691970e+00   1.2190408805482380e+00   1.1885708235682271e+00   1.1799823117794204e+00   1.1703372660876470e+00   1.1908742812929309e+00   1.1522511117711474e+00   1.1639960795483300e+00   1.2090541107674944e+00   1.2284091429346158e+00   1.1277264636552071e+00   1.1210469421271563e+00   1.1494521782328668e+00   1.1657094228654008e+00   1.1715581336688714e+00   1.1847083248451344e+00   1.1782198470259646e+00   1.1599055486235827e+00   1.2427613380420419e+00   1.2223823490678887e+00   1.2271331266901442e+00   1.2172431555353445e+00   1.2552544136325063e+00   1.2648367863231689e+00   1.2422772779378395e+00   1.2107628080450759e+00   1.2089526556662615e+00   1.2281825387941463e+00   1.2049349388631312e+00   1.2266520279953215e+00   1.2539646701751586e+00   1.2267570250817943e+00   1.2157369943704703e+00   1.2275428106573854e+00   1.1312001940531053e+00   1.1034575130924056e+00   1.1217626011910176e+00   1.1078593645202184e+00   1.0900652501750634e+00   1.1063810290037877e+00   1.0531464231618775e+00   1.0532685218646900e+00   1.0796276087148717e+00   1.0924846661947052e+00   1.1842875408237210e+00   1.2166049227575875e+00   1.1537588735677522e+00   1.1374355880566904e+00   1.1717712868400816e+00   1.1628165287977572e+00   1.1983501658096634e+00   1.1467715783629444e+00   1.1409680855583106e+00   1.1678932214834485e+00   1.1341122475326006e+00   1.1753129881324775e+00   1.1823556773700059e+00   1.1548174736647978e+00   1.1667046644294843e+00   1.1639666768897250e+00   1.1661963818017325e+00   1.1294569889261650e+00   1.1493877223091391e+00   1.2531107524715865e+00   1.2248656846728998e+00   1.2010143581943549e+00   1.2185765501302730e+00   1.2332414285302076e+00   1.2101744512069286e+00   1.1629597818128881e+00   1.1632509566930114e+00   1.1451826899680184e+00   1.1531274129771090e+00   1.1598308936384327e+00   1.1623960424069935e+00   1.1841011407433284e+00   1.1301412949263880e+00   1.1873632496550288e+00   1.2147013740219517e+00   1.2246868983824701e+00   1.1432436367330836e+00   1.1991432674861229e+00   1.1835130371578895e+00   1.2668767834602168e+00   1.2346733685222073e+00   1.1715965073332688e+00   1.2673084458836708e+00   1.2346194935897785e+00   1.1621056827387799e+00   1.1575245506125982e+00   1.1674769188198171e+00   1.1598210024423308e+00   1.1752508537559077e+00   1.1688018542994079e+00   1.1794741010523835e+00   1.1753784761776442e+00   1.1752592339456833e+00   1.2231831451244337e+00   1.1337130761300285e+00   1.1395169750137915e+00   1.1490119783449679e+00   1.1746399347185310e+00   1.2104255591268331e+00   1.1883770326264211e+00   1.1370018388365519e+00   1.1690688748580620e+00   1.1615484631648376e+00   1.2108318029402079e+00   1.1751939492757872e+00   1.1334656029928349e+00   1.1507732102807673e+00   1.1637669984489891e+00   1.1634654586165161e+00   1.1718490373792845e+00   1.1363405084063385e+00   1.1658363958613465e+00   1.1429096938173744e+00   1.1915122054038232e+00   1.1990717469972347e+00   1.1278010051682315e+00   1.1517245683567146e+00   1.1811097493394040e+00   1.1734129445007875e+00   1.1968111630321348e+00   1.1756654460714961e+00   1.1886009288153205e+00   1.1967143895672194e+00   1.1701650102700871e+00   1.1255158791735091e+00   1.2099253248986410e+00   1.2093668448013422e+00   1.1797658172801955e+00   1.1897361423821105e+00   1.1775390386118436e+00   1.1963898586541117e+00   1.1891822354796704e+00   1.1871954553026929e+00   1.1985001523379877e+00   1.1399918810217395e+00   1.1649770286617778e+00   1.1239087378771535e+00   1.1432083552461287e+00   1.1376469875369553e+00   1.1375995956810068e+00   1.2039981371479453e+00   1.1766402031068282e+00   1.2463697141615611e+00   1.2272650635838920e+00   1.1827044866268783e+00   1.1852697095461395e+00   1.1635136773772303e+00   1.1853309163106016e+00   1.1746816573497643e+00   1.2525758246984808e+00   1.2175481450630909e+00   1.1641975010457910e+00   1.1368700720336660e+00   1.1528980904389048e+00   1.1269957380915037e+00   1.2030286997290747e+00   1.2133654386429285e+00   1.2010039024645542e+00   1.1892113306619569e+00   1.1219553260623190e+00   1.1542453305764286e+00   1.1768512551869799e+00   1.1740400751595568e+00   1.1775383865137798e+00   1.1760046690620154e+00   1.1537929647908569e+00   1.1668492951293297e+00   1.1749132417893853e+00   1.1914822547745596e+00   1.1802387362282341e+00   1.1857091579341148e+00   1.1829669966706633e+00   1.1800954730307920e+00   1.1784215754819563e+00   1.1819779316347838e+00   1.1762393824406763e+00   1.1785339117794302e+00   1.1751121081788367e+00   1.1339567164622715e+00   1.1659644038096912e+00   1.1111363558784293e+00   1.1271763984067902e+00   1.1874053266959708e+00   1.2015567244028698e+00   1.1551969069670462e+00   1.1621101843636705e+00   1.1774565648777866e+00   1.1801041077436341e+00   1.1781266198385010e+00   1.1863397859446385e+00   1.1990844036756283e+00   1.1804010008536705e+00   1.1826874939730161e+00   1.1891832347193236e+00   1.2070052377334759e+00   1.2236212987435244e+00   1.1795251339361579e+00   1.1637951522968197e+00   1.1751616055380223e+00   1.1867134218165094e+00   1.1903218050400608e+00   1.1777756586572075e+00   1.0935749654240825e+00   1.2346892855227067e+00   1.2335903729485613e+00   1.1919283036696258e+00   1.1373442115546240e+00   1.1805998263947788e+00   1.1733831858989006e+00   1.1692631222694738e+00   1.1434481128498810e+00   1.1639836933272674e+00   1.1357471330231881e+00   1.1874208652047276e+00   1.1807236902602045e+00   1.1936138959596854e+00   1.1973164860796741e+00   1.1085933416578921e+00   1.1589877820458943e+00   1.1921168223966694e+00   1.1774426963012690e+00   1.1833421649254039e+00   1.2064794992705958e+00   1.2016669313182380e+00   1.1800348368549125e+00   1.1722989350967248e+00   1.1917479481750994e+00   1.2011818466073894e+00   1.1722688921393254e+00   1.1896420412691819e+00   1.13491922149486