<?xml version="1.0"?>
<VTKFile type="UnstructuredGrid"  version="0.1"  >
<UnstructuredGrid>
<Piece  NumberOfPoints="1109" NumberOfCells="1972">
<Points>
<DataArray  type="Float64"  NumberOfComponents="3"  format="ascii">0 1 0  0 0 0  1 0 0  1 1 0  0.8968458805257912 0.5501332934257217 0  0.9 0.5 0  0.8968458805257911 0.4498667065742781 0  0.8874332644514524 0.4005240451340579 0  0.8719105943553006 0.3527501789261288 0  0.8505226720175453 0.3072985303593135 0  0.823606797749979 0.2648858990830106 0  0.7915874509685645 0.2261811576285244 0  0.7549695958994758 0.1917947028896841 0  0.7143307179915988 0.162268829799194 0  0.6703117166260287 0.138069179013592 0  0.6236067977499788 0.1195773934819385 0  0.5749525258342897 0.1070850997085245 0  0.5251162078117251 0.1007893086286913 0  0.4748837921882747 0.1007893086286913 0  0.4250474741657101 0.1070850997085245 0  0.376393202250021 0.1195773934819386 0  0.3296882833739712 0.1380691790135921 0  0.2856692820084015 0.1622688297991939 0  0.2450304041005242 0.1917947028896843 0  0.2084125490314353 0.2261811576285246 0  0.1763932022500209 0.2648858990830109 0  0.1494773279824546 0.3072985303593139 0  0.1280894056446994 0.3527501789261288 0  0.1125667355485475 0.4005240451340581 0  0.1031541194742088 0.4498667065742783 0  0.09999999999999998 0.5 0  0.1031541194742089 0.5501332934257218 0  0.1125667355485476 0.5994759548659421 0  0.1280894056446995 0.6472498210738713 0  0.1494773279824546 0.6927014696406861 0  0.176393202250021 0.7351141009169893 0  0.2084125490314355 0.7738188423714756 0  0.2450304041005241 0.8082052971103157 0  0.2856692820084012 0.837731170200806 0  0.3296882833739709 0.8619308209864078 0  0.3763932022500212 0.8804226065180615 0  0.4250474741657101 0.8929149002914756 0  0.4748837921882746 0.8992106913713087 0  0.5251162078117254 0.8992106913713087 0  0.5749525258342899 0.8929149002914755 0  0.623606797749979 0.8804226065180614 0  0.6703117166260291 0.8619308209864078 0  0.7143307179915986 0.8377311702008061 0  0.754969595899476 0.8082052971103157 0  0.7915874509685646 0.7738188423714755 0  0.823606797749979 0.7351141009169893 0  0.8505226720175454 0.6927014696406861 0  0.8719105943553006 0.6472498210738712 0  0.8874332644514524 0.599475954865942 0  0 0.5 0  1 0.5 0  0.5 0 0  0.5 1 0  0 0.75 0  0 0.25 0  1 0.25 0  1 0.75 0  0.75 0 0  0.25 0 0  0.25 1 0  0.75 1 0  0 0.625 0  0 0.375 0  1 0.375 0  1 0.625 0  0.625 0 0  0.375 0 0  0.375 1 0  0.625 1 0  0.125 0 0  0.875 0 0  1 0.125 0  0 0.875 0  0.125 1 0  0.875 1 0  0 0.125 0  1 0.875 0  0.1443946775413214 0.1213187937376868 0  0.8556053224586788 0.8786812062623132 0  0.8556053224586785 0.1213187937376867 0  0.1275360334547992 0.8724639665452008 0  0.9261623581710797 0.1875 0  0.09234641934319709 0.2082689144241477 0  0.9076535806568029 0.7917310855758523 0  0.08970099689351971 0.7603836651344988 0  0.2182130526099624 0.9079579669686324 0  0.07086411995581518 0.07086411995581518 0  1 0.0625 0  0.9375 0 0  0.0625 1 0  0 0.9375 0  0.9291358800441849 0.9291358800441849 0  0.7304772975931939 0.08076335202639119 0  0.2695227024068061 0.08076335202639115 0  0.7697819974699807 0.9105968468121929 0  1 0.6875 0  1 0.3125 0  0.06784168511078095 0.2966417331842567 0  0 0.6875 0  0.1875 0 0  0.8125 0 0  0.9212459744619301 0.2681742056774029 0  0.6875 1 0  0.3125 1 0  0.922097136530977 0.07790286346902295 0  0.9261304603587264 0.7150772115644075 0  0 0.8125 0  0.07432186328509671 0.9256781367149033 0  0.06317182982585627 0.84375 0  0.8548473925302104 0.1928285354262928 0  0.6710199663399635 0.9319471281137308 0  0.2914274450692525 0.9272721924131209 0  0.9226595291420543 0.8597667107019437 0  0.0773404708579461 0.1402332892980563 0  0.8125 1 0  0.06054886616517211 0.65625 0  0.9362657027224049 0.3336129027547622 0  0.1841195715992005 0.8363784907223111 0  0.6625377124131507 0.06023416665880475 0  0.3125 0 0  0.34375 0.06016090820395464 0  0.2153846372786545 0.1270381302276244 0  0.8024953780019808 0.07187189600048093 0  0.1546395545758083 0.9367961467266345 0  0.5625 1 0  0.4375 0 0  0.4375 1 0  0.5625 0 0  0.1844766880788185 0.06724298999790632 0  0.9369725282473387 0.6419809811402504 0  0.791523351719164 0.1369023590147849 0  0.8285961364903059 0.9374018659319692 0  1 0.4375 0  0 0.4375 0  1 0.5625 0  0 0.5625 0  0 0.3125 0  1 0.8125 0  0.0625 0 0  0 0.0625 0  0 0.1875 0  1 0.1875 0  1 0.9375 0  0.9375 1 0  0.6875 0 0  0.1875 1 0  0.8126465958421825 0.8329348088176629 0  0.1550798535647612 0.1867680086445373 0  0.8631981559835366 0.06032295929500282 0  0.1449089435554358 0.7884432695884597 0  0.3538206140027237 0.9399564250283491 0  0.944997661525766 0.4151121561005554 0  0.05500233847423393 0.5848878438994446 0  0.0520912947951912 0.40625 0  0.59375 0.05063263303723638 0  0.6113142584645842 0.9411585052804305 0  0.402402637527157 0.05243074290023167 0  0.05237021982595785 0.7146869946988353 0  0.9514280734197595 0.53125 0  0.04857192658024048 0.46875 0  0.1138995451272664 0.2618291859344329 0  0.1276043399716366 0.06698080255494471 0  0.9496852823490703 0.5873315358652272 0  0.7164226875694513 0.8936714072472519 0  0.728445758907293 0.9483406189827143 0  0.05037626111865807 0.3500677784994627 0  0.9425695009311538 0.1320174568820216 0  0.4108317852857326 0.9488345682840208 0  0.5398628985995173 0.04893133705064829 0  0.46875 0.04573672429098317 0  0.4652931800096448 0.9529811055869081 0  0.53125 0.9542632757090168 0  0.8785971272885281 0.7441734326495726 0  0.8518416617605847 0.7931754903661554 0  0.04183404050302509 0.78125 0  0.7612395846848441 0.8595654412716175 0  0.2310588911243982 0.8579303197600836 0  0.04148050284378633 0.21875 0  0.9494864361787021 0.7612608042848362 0  0.9500000000000001 0.4721339993173143 0  0.04999999999999998 0.5278660006826856 0  0.8781553628189985 0.9246252444972441 0  0.8731991046476956 0.2435858407989878 0  0.09811738497342513 0.6912987895906199 0  0.78125 0.9600244726998853 0  0.09951704281279977 0.8094116423849811 0  0.1723930843372325 0.8914409560171174 0  0.21875 0.9592823984315264 0  0.8808053857873319 0.8333253975559158 0  0.8963977713581862 0.1485308906960134 0  0.9538351164349618 0.2296733193971382 0  0.9502525126806526 0.8180081280125184 0  0.2312490385075739 0.04727387874777968 0  0.2715914187620846 0.8835921407480765 0  0.8075381809024645 0.880775593205643 0  0.71875 0.03518728418751645 0  0.28125 0.03518728418751642 0  0.7646042202168328 0.04444036111707996 0  0.9023329991729737 0.03666350737326187 0  0.03401531498238862 0.15625 0  0.1188530488980251 0.1590855287670435 0  0.9585274478449393 0.2940602659505009 0  0.122777080947294 0.7293581095092172 0  0.9670375667902916 0.09375 0  0.2005134857209875 0.1810792546569654 0  0.04567406045797464 0.8878541658538743 0  0.09375 0.966869578205468 0  0.1562008719445321 0.03232788333739163 0  0.8953932105853648 0.3139420780646932 0  0.7990572522972532 0.1815363722387022 0  0.0968875242781685 0.03463409819727443 0  0.03223722036876893 0.09375 0  0.9004223587754672 0.9633108159792649 0  0.9677627796312311 0.90625 0  0.1015654613822437 0.1029847255361322 0  0.9612688796250578 0.9612688796250578 0  0 0.03125 0  0.03125 0 0  0.04144949962501476 0.9585505003749852 0  0.9558898336496962 0.04411016635030385 0  0.9068917513393455 0.6748714165270275 0  0.1368346895292699 0.830580202512584 0  0.1325215314767946 0.2232188145997174 0  0.07053058491102715 0.2523250971165124 0  0.28125 1 0  0.2618257196382527 0.9585732837283344 0  0.08628220552312613 0.8784418410901162 0  0.6885162251696433 0.09694521726220126 0  0.7451861497985837 0.1260293295250874 0  0.313422114933215 0.09491014745286984 0  0.2604190570795071 0.1249189143540631 0  0.9242490330121279 0.3761177923443456 0  0.8294827367589617 0.1534479284350518 0  0 0.28125 0  0.1085704015556412 0.3026527142683792 0  0.6454377779583714 0.9642341400769985 0  0.1735682150935896 0.1501527832362767 0  0.9118639212665761 0.2270478094042325 0  0.9675029085737417 0.7231519194735394 0  0.9540854621793986 0.6818714685662951 0  0.3411855214203015 0.9011195850022233 0  0.2203778463487443 0.08657146517086198 0  0.04103470738435357 0.04103470738435357 0  0.5692124642834736 0.9350661676969988 0  0.1143804055696223 0.9319617439078584 0  0.08871656954519293 0.3663659127109965 0  0.9630811790855398 0.168250321868886 0  0.8941478109554366 0.1077225817667272 0  0.7685953432959879 0.09339992494635127 0  0.9613334331586147 0.8673647296762501 0  0.84375 0 0  0.8276419188889859 0.03874003995670209 0  0.4987074584280061 0.9312004428379874 0  0.4999999999999999 0.07012294039149713 0  0.906353444207591 0.8962759602721756 0  0.8317000502825128 0.2255938539236174 0  0.060982293117454 0.1847248153131282 0  0.84375 1 0  0.8601163332513452 0.9625346208269469 0  0.07696867235812772 0.6190771663714262 0  0.03866375363197156 0.624370156890833 0  0.386395970129115 0.9182613855572013 0  0.59375 1 0  0.03763634871355165 0.2725691404761272 0  1 0.34375 0  0.9619513789393942 0.3638256452123659 0  0.1705891391383945 0.2215719862571997 0  0.2993345649440622 0.9643978827856838 0  0.2548390693531445 0.917543736811073 0  0.4376701674058487 0.06983678836603174 0  0.6249880952696493 0.07804203554412367 0  0.8891633930840495 0.7080603551933189 0  0 0.65625 0  0.8857454763750297 0.2783067670731572 0  1 0.65625 0  0 0.59375 0  0.9147359581367025 0.7498372322849914 0  0.34375 1 0  0.08128436453222096 0.3306040779845135 0  0.8370204413255111 0.08803482611562097 0  0.4399236117509409 0.9264634199869409 0  0.3763243110806382 0.08093997073896844 0  1 0.78125 0  0.3058827875685617 0.8943637152968825 0  0.891027260700638 0.1971556622156984 0  0.1814462944911871 0.9630031969500565 0  0.1812917788273262 0.1067749496803429 0  0.2291605611046911 0.1598957180171764 0  0.630525566101238 0.03837025329843378 0  0.03363261960646192 0.92260900189631 0  0.2960793559902691 0.1260912307633523 0  0.03663553287191564 0.8179172045954961 0  0.02996523389584273 0.8560987956667739 0  0.09880166525369549 0.8450583124835681 0  0.6923212173088138 0.150169004406393 0  0.502
[...]
<CellData  Scalars="detF"> 
<DataArray  type="Float64"  Name="detF"  format="ascii">1.2201682284314341e+00   1.3242689751080432e+00   1.3311609499032870e+00   1.3307867334316175e+00   1.3439808206706891e+00   1.3952757589927161e+00   1.3196738653217486e+00   1.2813557954907222e+00   1.2997517692370952e+00   1.3721520695163103e+00   1.3397628347841122e+00   1.2513557889904681e+00   1.3224436868185525e+00   1.3892969327566045e+00   1.2737818192831638e+00   1.3055538815813283e+00   1.3232916413503133e+00   1.3832596079878399e+00   1.2226085937132207e+00   1.2772558756999683e+00   1.3004173062808346e+00   1.3172221328699736e+00   1.3774685658973624e+00   1.2694652141863931e+00   1.3029305971213165e+00   1.2267105966209564e+00   1.3115335429413060e+00   1.2993530687333963e+00   1.2917672437053196e+00   1.3225561964984260e+00   1.3833427018473690e+00   1.3006816705980460e+00   1.2765945771734142e+00   1.3263617932077065e+00   1.3711333163547141e+00   1.2581222344286334e+00   1.3542175015792333e+00   1.3729606884698307e+00   1.2161264066381892e+00   1.3044020489841779e+00   1.2942853143729429e+00   1.2300499301685170e+00   1.3575611936307412e+00   1.3591980622982651e+00   1.3158753965751593e+00   1.3600143654760979e+00   1.3486196828754349e+00   1.3963806399874901e+00   1.2987248810149916e+00   1.3169159778985333e+00   1.3031381432110243e+00   1.3461337586576700e+00   1.3400454672800521e+00   1.2950353204568907e+00   1.3093003343109268e+00   1.3078641579851789e+00   1.2964050538669796e+00   1.3793809887142852e+00   1.3204257126736010e+00   1.2094039536767656e+00   1.2348393654030967e+00   1.3124126107200844e+00   1.3324761724338428e+00   1.3027538266293075e+00   1.2332458626857323e+00   1.3642786184857185e+00   1.2650855857869108e+00   1.1651647790692163e+00   1.3209278702664848e+00   1.2495957864826162e+00   1.2966775375401638e+00   1.2952073572753051e+00   1.2437329985463874e+00   1.3240541015534488e+00   1.2976484301593216e+00   1.3023009490880699e+00   1.2904228628614884e+00   1.3168021702505404e+00   1.3303948633735181e+00   1.3184175296565648e+00   1.3591038134708049e+00   1.2945119413113226e+00   1.3322832568632514e+00   1.2932645681128705e+00   1.3025157523526152e+00   1.3355845454324344e+00   1.3173451365065501e+00   1.3004833116335353e+00   1.2994639918468527e+00   1.3298353260577873e+00   1.1867780575032310e+00   1.3287458813521018e+00   1.3028017293536676e+00   1.3426514125261062e+00   1.3353879728622493e+00   1.2665062939682548e+00   1.2798303907826252e+00   1.3421106946369277e+00   1.2654676899691031e+00   1.3550901236329220e+00   1.2838404364449982e+00   1.3096522047224135e+00   1.3339150054228157e+00   1.3188231301095750e+00   1.2710804259200805e+00   1.2601787693145416e+00   1.2411484574751406e+00   1.3651424198158082e+00   1.3957836982250791e+00   1.2793836525257258e+00   1.3170468601983047e+00   1.1681561941336078e+00   1.2884807242864127e+00   1.3914344424404128e+00   1.3648365976305306e+00   1.3425386340735079e+00   1.2702895074609644e+00   1.3111808295992124e+00   1.3617906849617789e+00   1.3845277529734761e+00   1.3099716255484490e+00   1.3598776539672837e+00   1.3537143617079301e+00   1.3566185051466610e+00   1.3229983935638574e+00   1.3260090756016554e+00   1.3351498741406702e+00   1.3177952039736747e+00   1.3662304055145851e+00   1.3893895526205022e+00   1.3206872250913071e+00   1.1902465805156377e+00   1.3704840633310078e+00   1.3531497895846458e+00   1.2849608007445557e+00   1.2991628426543849e+00   1.2418719122982800e+00   1.2902190291253763e+00   1.3067680972402593e+00   1.3004816900274974e+00   1.3049064878257290e+00   1.2858940209393883e+00   1.4480743646705809e+00   1.3156720063018557e+00   1.3926803212484677e+00   1.3854508095913463e+00   1.3603084022989731e+00   1.2667228575152816e+00   1.3617774395609201e+00   1.3482084049479575e+00   1.3156594836647699e+00   1.4009111260588856e+00   1.3651534568144297e+00   1.4000627224602080e+00   1.3289859300078986e+00   1.3500203297767843e+00   1.3316408862487841e+00   1.2597699279579850e+00   1.3266501976492389e+00   1.3552151046250847e+00   1.3819817850288616e+00   1.4657310297767792e+00   1.3186692101356217e+00   1.4079601766001308e+00   1.4202064029991264e+00   1.3402314077687154e+00   1.3066578342694777e+00   1.3431554291500700e+00   1.4225630468368013e+00   1.3831372447106414e+00   1.3003584966401975e+00   1.3808310710469094e+00   1.3446260328965360e+00   1.3252797990398650e+00   1.3261438772895644e+00   1.2541447388621034e+00   1.3266531869235059e+00   1.3507130089031356e+00   1.3361609306909963e+00   1.3284798967590472e+00   1.3065570456844131e+00   1.3565653944992326e+00   1.3860728005493916e+00   1.3437372800220633e+00   1.3876173866489323e+00   1.3500348440091650e+00   1.3221489269518329e+00   1.3117210515943905e+00   1.3163423363696662e+00   1.3251112535632510e+00   1.3156288688963689e+00   1.3319177768011425e+00   1.3150570197113998e+00   1.4294679285240761e+00   1.3256659867167442e+00   1.3858465917720817e+00   1.2804277154589883e+00   1.3505238836629734e+00   1.3100706792962105e+00   1.2190147069527086e+00   1.3392252351129288e+00   1.3196894131901191e+00   1.2931238430736007e+00   1.3461481571349754e+00   1.3255642578313209e+00   1.3205756197117520e+00   1.3148816808952353e+00   1.3254952134138764e+00   1.3333707997201081e+00   1.3236349341746201e+00   1.3630388846290047e+00   1.3687817164942184e+00   1.2958772454693277e+00   1.3116939315305234e+00   1.3171118850100629e+00   1.3146063157882004e+00   1.2704640778367833e+00   1.1941781429021094e+00   1.3203825462629448e+00   1.3507182438166350e+00   1.3085951752504237e+00   1.3106680777812176e+00   1.3192811269152198e+00   1.3162439491414604e+00   1.3156105453837481e+00   1.3243920796340221e+00   1.2574190857363414e+00   1.2889461091914196e+00   1.3370540736110066e+00   1.3348789663634604e+00   1.3372701189970151e+00   1.1863449575406895e+00   1.3093033337381790e+00   1.3191305176410846e+00   1.2628495998849223e+00   1.3784717815269161e+00   1.3748174354571090e+00   1.2280458744276470e+00   1.2315555327403034e+00   1.3180006706852077e+00   1.2591208800529248e+00   1.2805236447147557e+00   1.2812467192253838e+00   1.4093879347186093e+00   1.3517768444941058e+00   1.2833766282608046e+00   1.2998553220499454e+00   1.2958279707695450e+00   1.2533130872444018e+00   1.1535604863612314e+00   1.2997635687394435e+00   1.3075293967201431e+00   1.2833586146688569e+00   1.2597859058608023e+00   1.1974417119290688e+00   1.1579337046221849e+00   1.2203587591927119e+00   1.2272611533607756e+00   1.1817171834803173e+00   1.2716205815715296e+00   1.3758291560479468e+00   1.3736351376041496e+00   1.3805550740803763e+00   1.3376272045235518e+00   1.3115257409591394e+00   1.3153031440313148e+00   1.2762675772365533e+00   1.3845519401568871e+00   1.3155212652200960e+00   1.3520092618575508e+00   1.3467175655134915e+00   1.3110524478103165e+00   1.2468486834698151e+00   1.3165824343436487e+00   1.2908659661701138e+00   1.3697170321569010e+00   1.2819822207981635e+00   1.1683788079153323e+00   1.2859067734704177e+00   1.3659516332859427e+00   1.3708567988150020e+00   1.4115617507737350e+00   1.3683408207530521e+00   1.2306950282188418e+00   1.2886991211366061e+00   1.3485775607090218e+00   1.3676676379593258e+00   1.3379577532962181e+00   1.3320512590672891e+00   1.3320266703591990e+00   1.3786465836431609e+00   1.2407456826074965e+00   1.3312842840073644e+00   1.3159850018897490e+00   1.2118604327503582e+00   1.1865266031220452e+00   1.2596276766843679e+00   1.3414986204303645e+00   1.3241182113806023e+00   1.2232162408744440e+00   1.3067719084190166e+00   1.3169530273817909e+00   1.3368173001960078e+00   1.3008423653378971e+00   1.3153379416733237e+00   1.3097698586282513e+00   1.2384664671161250e+00   1.2947093641390786e+00   1.3124688769653732e+00   1.2854038303884849e+00   1.3074916516944615e+00   1.3030467777177153e+00   1.3135892948406589e+00   1.3224559138384642e+00   1.3185439938044687e+00   1.3185970819081652e+00   1.2736101763405243e+00   1.2807680265149213e+00   1.3406921606981681e+00   1.3014341523196880e+00   1.2764137877058901e+00   1.2289932303175608e+00   1.3154308362626943e+00   1.2896362079176222e+00   1.2736748239961049e+00   1.3621728006281353e+00   1.2773348939486542e+00   1.2241579316276605e+00   1.3942159930198590e+00   1.3915097172490183e+00   1.3284611769373038e+00   1.2942627138301424e+00   1.2715484740479279e+00   1.4066607323543447e+00   1.3713639067933714e+00   1.3635975741925583e+00   1.3978657012968725e+00   1.3745780678993029e+00   1.3845610778655251e+00   1.3513098519676621e+00   1.3165785700140360e+00   1.3194351011830714e+00   1.3148435049732305e+00   1.3289169859881578e+00   1.1655818431466247e+00   1.2326017682057040e+00   1.3607100494346607e+00   1.2255457920936115e+00   1.3850984922205110e+00   1.3397499807693611e+00   1.3045687621711279e+00   1.3234060983558615e+00   1.3590349795300716e+00   1.3490106140518363e+00   1.3965582872531999e+00   1.2841054668309217e+00   1.3108012130495243e+00   1.3445818628901609e+00   1.3105678471959681e+00   1.3530951933455937e+00   1.2580237656499262e+00   1.3292544123473440e+00   1.3393483003724591e+00   1.2620508308205538e+00   1.2609680516084159e+00   1.2250599901328771e+00   1.2811996635453424e+00   1.2545363321057919e+00   1.2859778709524445e+00   1.3514416885732845e+00   1.3297267875935035e+00   1.2767744640011016e+00   1.3333990268753684e+00   1.4024038250548201e+00   1.3928232536991876e+00   1.3449349664961392e+00   1.3066204316151180e+00   1.2742581110391675e+00   1.2457083891293821e+00   1.1707454892397680e+00   1.2785997719198929e+00   1.2774643722031669e+00   1.2276673992886091e+00   1.3503433266001463e+00   1.3500268942536149e+00   1.2243827306211270e+00   1.2714878071660425e+00   1.4231196277261673e+00   1.4782693913664915e+00   1.2547572836854712e+00   1.2095117192879739e+00   1.2338928509521199e+00   1.3699558462204331e+00   1.3956652074477309e+00   1.4174146830440384e+00   1.2790327326100692e+00   1.3493150636294142e+00   1.3162054824082126e+00   1.3477756504531231e+00   1.3212104822123056e+00   1.3681972705694070e+00   1.3374128756057519e+00   1.3239733087877310e+00   1.3248724451647693e+00   1.3332933546640664e+00   1.3076177147974091e+00   1.3117705328972042e+00   1.3096266544635331e+00   1.3672403461520459e+00   1.4067725271153870e+00   1.4800647090483519e+00   1.4791251952896900e+00   1.3393369079550135e+00   1.3422326964366700e+00   1.1832997904631493e+00   1.2394167844563408e+00   1.3581722189547809e+00   1.4291422080130243e+00   1.3687756099729365e+00   1.4030882713893675e+00   1.3258745514145287e+00   1.3481280866247431e+00   1.2845970372355975e+00   1.2174102727562479e+00   1.4533299347130293e+00   1.3358388807028538e+00   1.3891330161247553e+00   1.2984829770064172e+00   1.2922258234974213e+00   1.3223263155442841e+00   1.3595254022071761e+00   1.3450180873048729e+00   1.3479668157014684e+00   1.3058092625428683e+00   1.3874634690006082e+00   1.3557114526909098e+00   1.4465758177094998e+00   1.2232004161583028e+00   1.3708262990590723e+00   1.3663858195423033e+00   1.3200105385578473e+00   1.3079196061131961e+00   1.2975919897050692e+00   1.3048137606924888e+00   1.2270675288674229e+00   1.4776392582530102e+00   1.2508383307899131e+00   1.3180489695144533e+00   1.3516389459600315e+00   1.2547206815582796e+00   1.2804130762378034e+00   1.2876511482823807e+00   1.2843736169477642e+00   1.3932299249546272e+00   1.3868169627680227e+00   1.3882750411536329e+00   1.3680287257585260e+00   1.3736204955427616e+00   1.3536076033022526e+00   1.3708133255671506e+00   1.2905267892063765e+00   1.2950095874241454e+00   1.3363931508488609e+00   1.3299263198203473e+00   1.3545174408048701e+00   1.3948236404051331e+00   1.3656422546708422e+00   1.3681469086757787e+00   1.2735305123736411e+00   1.2735833387481477e+00   1.3058142833698638e+00   1.3573519835570678e+00   1.3819953509428176e+00   1.3478371322124740e+00   1.3189959231117212e+00   1.3405378746298795e+00   1.3164698355942270e+00   1.3138128298701777e+00   1.4319489584789900e+00   1.4053994880552008e+00   1.4639812535167780e+00   1.1679004635418226e+00   1.2684499906235183e+00   1.1645913896440325e+00   1.3496057791306189e+00   1.3820307086103634e+00   1.3339898769438887e+00   1.3365450111559236e+00   1.2830251266991584e+00   1.2968336015472774e+00   1.3231553053311302e+00   1.3291815451981182e+00   1.3294605699136577e+00   1.3352218626525552e+00   1.2824874724348838e+00   1.3574864270596301e+00   1.2832085249981284e+00   1.3106284579450871e+00   1.3350707023861108e+00   1.3199952278286355e+00   1.3278759779577540e+00   1.3592517590949902e+00   1.3339516011254691e+00   1.2808460452355150e+00   1.2910372898947173e+00   1.2769810383379476e+00   1.3110103743952874e+00   1.4485556987626791e+00   1.3710106877771913e+00   1.3500229955350502e+00   1.4004514202753606e+00   1.3019741935750095e+00   1.2220580347435601e+00   1.2432539023778282e+00   1.2641793546755280e+00   1.3089450845666817e+00   1.3515256094495560e+00   1.3230812071649272e+00   1.3250409505654084e+00   1.4063109100245952e+00   1.3584580719639019e+00   1.3306020809908961e+00   1.3224409212631867e+00   1.3422462992967981e+00   1.4018523655459827e+00   1.4804736051922758e+00   1.3356212226314728e+00   1.3275271396076254e+00   1.3962255889450288e+00   1.3529129994672804e+00   1.3823561010480414e+00   1.3726545113144952e+00   1.3660289769561558e+00   1.3699381016364909e+00   1.2909875362449876e+00   1.2637759040007470e+00   1.3204741239927480e+00   1.2756010305513770e+00   1.2593021640853792e+00   1.3160046326290809e+00   1.3148731520314478e+00   1.2973423702029705e+00   1.3902797433053258e+00   1.4073565790589879e+00   1.2342750890115062e+00   1.2381884292331800e+00   1.2418855841054288e+00   1.1860017443066690e+00   1.1893331623923145e+00   1.1572126245136043e+00   1.2423387313304051e+00   1.2296219750821948e+00   1.2709462092494428e+00   1.2029534306756118e+00   1.2965602303283519e+00   1.2547303809517585e+00   1.2388430592750814e+00   1.2601465158034497e+00   1.2677549626021853e+00   1.2330417975206509e+00   1.2380587050898728e+00   1.2257483426947542e+00   1.3852293161185791e+00   1.4091449268139313e+00   1.3359981662152620e+00   1.3299251492427104e+00   1.3121054341697926e+00   1.3500053478436478e+00   1.2872936611655086e+00   1.3096482656803585e+00   1.3641464548387752e+00   1.4030439903527125e+00   1.2387224728943087e+00   1.2281520559559516e+00   1.2819327733515584e+00   1.3040389867356499e+00   1.3122417273860520e+00   1.3347623636687249e+00   1.3199913635793814e+00   1.2969737435845932e+00   1.4315592926724139e+00   1.3980859164677450e+00   1.4009170251216780e+00   1.3838934442417368e+00   1.4648720686389334e+00   1.4778847132026280e+00   1.4308986842726170e+00   1.3665228827767750e+00   1.3636994452598190e+00   1.4014131005034209e+00   1.3577625252225953e+00   1.4016302933387716e+00   1.4625429339430573e+00   1.4068979721600263e+00   1.3799928392480405e+00   1.4105764026650525e+00   1.2635900186578215e+00   1.2085019570191073e+00   1.2333563336434659e+00   1.2068724074430692e+00   1.1789375910566571e+00   1.2139774357195769e+00   1.1049645801571875e+00   1.1053616300245457e+00   1.1527917519535269e+00   1.1839272130812026e+00   1.3479592437845556e+00   1.4050519229361780e+00   1.2855401569316973e+00   1.2573668770856778e+00   1.3145396134521403e+00   1.3079664022021704e+00   1.3734895008544785e+00   1.2884671239016106e+00   1.2719270887774017e+00   1.2681867793321415e+00   1.1956358523957646e+00   1.3180922110409026e+00   1.3293237158617188e+00   1.3121528287172950e+00   1.3274451583283211e+00   1.3094899810883178e+00   1.3073893663226415e+00   1.2548455490064530e+00   1.3017814317736822e+00   1.4616911792104104e+00   1.4042766903331525e+00   1.3474556160378901e+00   1.3923860970103958e+00   1.4224564762886598e+00   1.3758257269435641e+00   1.2599637354076598e+00   1.2620172540468571e+00   1.2914707250487762e+00   1.3085226325031305e+00   1.3213163193513737e+00   1.3269599371651977e+00   1.3091275821038666e+00   1.2017951706359071e+00   1.3206522537819714e+00   1.3876348663844649e+00   1.3966756549561214e+00   1.2217716882164404e+00   1.3484440952513015e+00   1.2988831550347875e+00   1.4808060186540624e+00   1.4185370716534991e+00   1.2830659583432789e+00   1.4813380104035392e+00   1.4191610911728270e+00   1.2628379431013401e+00   1.2502823375775174e+00   1.2607649531913117e+00   1.2279188207592391e+00   1.2827238350532946e+00   1.3106310426494012e+00   1.3292014118922786e+00   1.2759587623401241e+00   1.2920230577148537e+00   1.4022005659639307e+00   1.1933051632531444e+00   1.2234096288195684e+00   1.2383559935801947e+00   1.2772034110109836e+00   1.3597332284266741e+00   1.3245733700001558e+00   1.2190756514540413e+00   1.2814275394480417e+00   1.2602426540353155e+00   1.3588318862623021e+00   1.2774913935471783e+00   1.1953648127817655e+00   1.2917477582737962e+00   1.3160500760932923e+00   1.2635918581388286e+00   1.2750003383856352e+00   1.1992959259837475e+00   1.2295961397192579e+00   1.1809382695719524e+00   1.3367310446698901e+00   1.3515966484469673e+00   1.1616861448059059e+00   1.2169593535830394e+00   1.3571156892679432e+00   1.3417679138852365e+00   1.3680209490085271e+00   1.2974999751164475e+00   1.3050896333484110e+00   1.3418074366689812e+00   1.2569465296679594e+00   1.1739683442680586e+00   1.3809438977690982e+00   1.3723391858216958e+00   1.3053427446631389e+00   1.3458837227223424e+00   1.2849692544325912e+00   1.3682822368230032e+00   1.3510218303016042e+00   1.3561089742615515e+00   1.3782817998645864e+00   1.2620687587164401e+00   1.3039907366412116e+00   1.2408652961647078e+00   1.2732652421619497e+00   1.2566466742015183e+00   1.2623580822537479e+00   1.3483242183945734e+00   1.2915379613797549e+00   1.4429750300648545e+00   1.4061413462239589e+00   1.3296835585258111e+00   1.3201462812746179e+00   1.2349161934245829e+00   1.3208649016926919e+00   1.2934172626279645e+00   1.4606523909084050e+00   1.3844516605722585e+00   1.2613600732327084e+00   1.2001224259734451e+00   1.2287227655315762e+00   1.1701474142146204e+00   1.3499437855057816e+00   1.3744225975910209e+00   1.3972253009814617e+00   1.3687666809539993e+00   1.2419019536557654e+00   1.3069048090876560e+00   1.2959894195866881e+00   1.2819405455052564e+00   1.2897172940651338e+00   1.2920734619840188e+00   1.2899988625970207e+00   1.3087892172957842e+00   1.2846044509433279e+00   1.3110524803007018e+00   1.3428923465004359e+00   1.3522391990324956e+00   1.3096216050101566e+00   1.3004988722944641e+00   1.3265881078676127e+00   1.3193312246092039e+00   1.2783536495017922e+00   1.3209894672882383e+00   1.3137309017062220e+00   1.1663837972263051e+00   1.2257948654230033e+00   1.2169312704789383e+00   1.2475434003862271e+00   1.3225903969410129e+00   1.3466678355548773e+00   1.2900684241810239e+00   1.2987710755700890e+00   1.3203812087570850e+00   1.3307372483661006e+00   1.3152656914396090e+00   1.3375731080313764e+00   1.3685953834068840e+00   1.3200243604070534e+00   1.3209000350059290e+00   1.3298903546389254e+00   1.3631478127316008e+00   1.4041809818321607e+00   1.3388848480815123e+00   1.3098426840295798e+00   1.3017393095443082e+00   1.3176396547845119e+00   1.3810492672025625e+00   1.3557347491779055e+00   1.1794985282448742e+00   1.4194606965997658e+00   1.4212381250493842e+00   1.3238206854709067e+00   1.2171812998083795e+00   1.3309357184609811e+00   1.3136444080445151e+00   1.2818181864566629e+00   1.2259029405266504e+00   1.2633906737625931e+00   1.1930025052726925e+00   1.3302033345391493e+00   1.3143218927898384e+00   1.3814749019787913e+00   1.3740936082214752e+00   1.2066210792336418e+00   1.2265312480906629e+00   1.3247796822966833e+00   1.2781182028587978e+00   1.3116649773608020e+00   1.3813465653202495e+00   1.3861477494971364e+00   1.3338923356467749e+00   1.3141217562924745e+00   1.3579610422775719e+00   1.3862264206069037e+00   1.2865237055107990e+00   1.3231606882930251e+00   1.16555468636625