<?xml version="1.0"?>
<VTKFile type="UnstructuredGrid"  version="0.1"  >
<UnstructuredGrid>
<Piece  NumberOfPoints="1109" NumberOfCells="1972">
<Points>
<DataArray  type="Float64"  NumberOfComponents="3"  format="ascii">0 1 0  0 0 0  1 0 0  1 1 0  0.8968458805257912 0.5501332934257217 0  0.9 0.5 0  0.8968458805257911 0.4498667065742781 0  0.8874332644514524 0.4005240451340579 0  0.8719105943553006 0.3527501789261288 0  0.8505226720175453 0.3072985303593135 0  0.823606797749979 0.2648858990830106 0  0.7915874509685645 0.2261811576285244 0  0.7549695958994758 0.1917947028896841 0  0.7143307179915988 0.162268829799194 0  0.6703117166260287 0.138069179013592 0  0.6236067977499788 0.1195773934819385 0  0.5749525258342897 0.1070850997085245 0  0.5251162078117251 0.1007893086286913 0  0.4748837921882747 0.1007893086286913 0  0.4250474741657101 0.1070850997085245 0  0.376393202250021 0.1195773934819386 0  0.3296882833739712 0.1380691790135921 0  0.2856692820084015 0.1622688297991939 0  0.2450304041005242 0.1917947028896843 0  0.2084125490314353 0.2261811576285246 0  0.1763932022500209 0.2648858990830109 0  0.1494773279824546 0.3072985303593139 0  0.1280894056446994 0.3527501789261288 0  0.1125667355485475 0.4005240451340581 0  0.1031541194742088 0.4498667065742783 0  0.09999999999999998 0.5 0  0.1031541194742089 0.5501332934257218 0  0.1125667355485476 0.5994759548659421 0  0.1280894056446995 0.6472498210738713 0  0.1494773279824546 0.6927014696406861 0  0.176393202250021 0.7351141009169893 0  0.2084125490314355 0.7738188423714756 0  0.2450304041005241 0.8082052971103157 0  0.2856692820084012 0.837731170200806 0  0.3296882833739709 0.8619308209864078 0  0.3763932022500212 0.8804226065180615 0  0.4250474741657101 0.8929149002914756 0  0.4748837921882746 0.8992106913713087 0  0.5251162078117254 0.8992106913713087 0  0.5749525258342899 0.8929149002914755 0  0.623606797749979 0.8804226065180614 0  0.6703117166260291 0.8619308209864078 0  0.7143307179915986 0.8377311702008061 0  0.754969595899476 0.8082052971103157 0  0.7915874509685646 0.7738188423714755 0  0.823606797749979 0.7351141009169893 0  0.8505226720175454 0.6927014696406861 0  0.8719105943553006 0.6472498210738712 0  0.8874332644514524 0.599475954865942 0  0.5 1 0  0 0.5 0  1 0.5 0  0.5 0 0  0.75 1 0  0.25 1 0  0 0.75 0  0 0.25 0  1 0.25 0  1 0.75 0  0.75 0 0  0.25 0 0  0.625 1 0  0.375 1 0  0 0.625 0  0 0.375 0  1 0.375 0  1 0.625 0  0.625 0 0  0.375 0 0  0.125 0 0  0.875 0 0  1 0.125 0  0 0.875 0  0.125 1 0  0.875 1 0  0 0.125 0  1 0.875 0  0.1443946775413214 0.1213187937376868 0  0.8556053224586788 0.8786812062623132 0  0.8556053224586785 0.1213187937376867 0  0.1275360334547992 0.8724639665452008 0  0.9261623581710797 0.1875 0  0.09234641934319709 0.2082689144241477 0  0.9076535806568029 0.7917310855758523 0  0.08970099689351971 0.7603836651344988 0  0.2182130526099624 0.9079579669686324 0  0.07086411995581518 0.07086411995581518 0  1 0.0625 0  0.9375 0 0  0.0625 1 0  0 0.9375 0  0.9291358800441849 0.9291358800441849 0  0.7304772975931939 0.08076335202639119 0  0.2695227024068061 0.08076335202639115 0  0.7697819974699807 0.9105968468121929 0  1 0.6875 0  1 0.3125 0  0.06784168511078095 0.2966417331842567 0  0 0.6875 0  0.1875 0 0  0.8125 0 0  0.9212459744619301 0.2681742056774029 0  0.3125 1 0  0.6875 1 0  0.922097136530977 0.07790286346902295 0  0.9261304603587264 0.7150772115644075 0  0 0.8125 0  0.07432186328509671 0.9256781367149033 0  0.06317182982585627 0.84375 0  0.8548473925302104 0.1928285354262928 0  0.2914274450692525 0.9272721924131209 0  0.6710199663399635 0.9319471281137308 0  0.9226595291420543 0.8597667107019437 0  0.0773404708579461 0.1402332892980563 0  0.8125 1 0  0.06054886616517211 0.65625 0  0.9362657027224049 0.3336129027547622 0  0.1841195715992005 0.8363784907223111 0  0.6625377124131507 0.06023416665880475 0  0.3125 0 0  0.34375 0.06016090820395464 0  0.2153846372786545 0.1270381302276244 0  0.8024953780019808 0.07187189600048093 0  0.1546395545758083 0.9367961467266345 0  0.5625 1 0  0.4375 0 0  0.4375 1 0  0.5625 0 0  0.1844766880788185 0.06724298999790632 0  0.9369725282473387 0.6419809811402504 0  0.791523351719164 0.1369023590147849 0  0.8285961364903059 0.9374018659319692 0  1 0.4375 0  0 0.4375 0  1 0.5625 0  0 0.5625 0  0 0.3125 0  1 0.8125 0  0.0625 0 0  0 0.0625 0  0 0.1875 0  1 0.1875 0  1 0.9375 0  0.9375 1 0  0.6875 0 0  0.1875 1 0  0.8126465958421825 0.8329348088176629 0  0.1550798535647612 0.1867680086445373 0  0.8631981559835366 0.06032295929500282 0  0.1449089435554358 0.7884432695884597 0  0.3538206140027237 0.9399564250283491 0  0.944997661525766 0.4151121561005554 0  0.05500233847423393 0.5848878438994446 0  0.0520912947951912 0.40625 0  0.59375 0.05063263303723638 0  0.6113142584645842 0.9411585052804305 0  0.402402637527157 0.05243074290023167 0  0.05237021982595785 0.7146869946988353 0  0.9514280734197595 0.53125 0  0.04857192658024048 0.46875 0  0.1138995451272664 0.2618291859344329 0  0.1276043399716366 0.06698080255494471 0  0.9496852823490703 0.5873315358652272 0  0.7164226875694513 0.8936714072472519 0  0.728445758907293 0.9483406189827143 0  0.05037626111865807 0.3500677784994627 0  0.9425695009311538 0.1320174568820216 0  0.4108317852857326 0.9488345682840208 0  0.5398628985995173 0.04893133705064829 0  0.46875 0.04573672429098317 0  0.4652931800096448 0.9529811055869081 0  0.53125 0.9542632757090168 0  0.8785971272885281 0.7441734326495726 0  0.8518416617605847 0.7931754903661554 0  0.04183404050302509 0.78125 0  0.7612395846848441 0.8595654412716175 0  0.2310588911243982 0.8579303197600836 0  0.04148050284378633 0.21875 0  0.9494864361787021 0.7612608042848362 0  0.9500000000000001 0.4721339993173143 0  0.04999999999999998 0.5278660006826856 0  0.8781553628189985 0.9246252444972441 0  0.8731991046476956 0.2435858407989878 0  0.09811738497342513 0.6912987895906199 0  0.78125 0.9600244726998853 0  0.09951704281279977 0.8094116423849811 0  0.1723930843372325 0.8914409560171174 0  0.21875 0.9592823984315264 0  0.8808053857873319 0.8333253975559158 0  0.8963977713581862 0.1485308906960134 0  0.9538351164349618 0.2296733193971382 0  0.9502525126806526 0.8180081280125184 0  0.2312490385075739 0.04727387874777968 0  0.2715914187620846 0.8835921407480765 0  0.8075381809024645 0.880775593205643 0  0.71875 0.03518728418751645 0  0.28125 0.03518728418751642 0  0.7646042202168328 0.04444036111707996 0  0.9023329991729737 0.03666350737326187 0  0.03401531498238862 0.15625 0  0.1188530488980251 0.1590855287670435 0  0.9585274478449393 0.2940602659505009 0  0.122777080947294 0.7293581095092172 0  0.9670375667902916 0.09375 0  0.2005134857209875 0.1810792546569654 0  0.04567406045797464 0.8878541658538743 0  0.09375 0.966869578205468 0  0.1562008719445321 0.03232788333739163 0  0.8953932105853648 0.3139420780646932 0  0.7990572522972532 0.1815363722387022 0  0.0968875242781685 0.03463409819727443 0  0.03223722036876893 0.09375 0  0.9004223587754672 0.9633108159792649 0  0.9677627796312311 0.90625 0  0.1015654613822437 0.1029847255361322 0  0.9612688796250578 0.9612688796250578 0  0 0.03125 0  0.03125 0 0  0.04144949962501476 0.9585505003749852 0  0.9558898336496962 0.04411016635030385 0  0.9068917513393455 0.6748714165270275 0  0.1368346895292699 0.830580202512584 0  0.1325215314767946 0.2232188145997174 0  0.07053058491102715 0.2523250971165124 0  0.28125 1 0  0.2618257196382527 0.9585732837283344 0  0.08628220552312613 0.8784418410901162 0  0.6885162251696433 0.09694521726220126 0  0.7451861497985837 0.1260293295250874 0  0.313422114933215 0.09491014745286984 0  0.2604190570795071 0.1249189143540631 0  0.9242490330121279 0.3761177923443456 0  0.8294827367589617 0.1534479284350518 0  0 0.28125 0  0.1085704015556412 0.3026527142683792 0  0.6454377779583714 0.9642341400769985 0  0.1735682150935896 0.1501527832362767 0  0.9118639212665761 0.2270478094042325 0  0.9675029085737417 0.7231519194735394 0  0.9540854621793986 0.6818714685662951 0  0.3411855214203015 0.9011195850022233 0  0.2203778463487443 0.08657146517086198 0  0.04103470738435357 0.04103470738435357 0  0.5692124642834736 0.9350661676969988 0  0.1143804055696223 0.9319617439078584 0  0.08871656954519293 0.3663659127109965 0  0.9630811790855398 0.168250321868886 0  0.8941478109554366 0.1077225817667272 0  0.7685953432959879 0.09339992494635127 0  0.9613334331586147 0.8673647296762501 0  0.84375 0 0  0.8276419188889859 0.03874003995670209 0  0.4987074584280061 0.9312004428379874 0  0.4999999999999999 0.07012294039149713 0  0.906353444207591 0.8962759602721756 0  0.8317000502825128 0.2255938539236174 0  0.060982293117454 0.1847248153131282 0  0.84375 1 0  0.8601163332513452 0.9625346208269469 0  0.07696867235812772 0.6190771663714262 0  0.03866375363197156 0.624370156890833 0  0.386395970129115 0.9182613855572013 0  0.59375 1 0  0.03763634871355165 0.2725691404761272 0  1 0.34375 0  0.9619513789393942 0.3638256452123659 0  0.1705891391383945 0.2215719862571997 0  0.2993345649440622 0.9643978827856838 0  0.2548390693531445 0.917543736811073 0  0.4376701674058487 0.06983678836603174 0  0.6249880952696493 0.07804203554412367 0  0.8891633930840495 0.7080603551933189 0  0 0.65625 0  0.8857454763750297 0.2783067670731572 0  1 0.65625 0  0 0.59375 0  0.9147359581367025 0.7498372322849914 0  0.34375 1 0  0.08128436453222096 0.3306040779845135 0  0.8370204413255111 0.08803482611562097 0  0.4399236117509409 0.9264634199869409 0  0.3763243110806382 0.08093997073896844 0  1 0.78125 0  0.3058827875685617 0.8943637152968825 0  0.891027260700638 0.1971556622156984 0  0.1814462944911871 0.9630031969500565 0  0.1812917788273262 0.1067749496803429 0  0.2291605611046911 0.1598957180171764 0  0.630525566101238 0.03837025329843378 0  0.03363261960646192 0.92260900189631 0  0.2960793559902691 0.1260912307633523 0  0.03663553287191564 0.8179172045954961 0  0.02996523389584273 0.8560987956667739 0  0.09880166525369549 0.8450583124835681 0  0.6923212173088138 0.150169004406393 0  0.502
[...]
<CellData  Scalars="detF"> 
<DataArray  type="Float64"  Name="detF"  format="ascii">1.2007620081685579e+00   1.2806272312969278e+00   1.2928257429470464e+00   1.2909399230224716e+00   1.3055738224118334e+00   1.3491134484579879e+00   1.2846115999126613e+00   1.2512864357197357e+00   1.2676458413735854e+00   1.3259029418535970e+00   1.3029846877295828e+00   1.2303902081613427e+00   1.2872503704684635e+00   1.2621706076323211e+00   1.2485535511001993e+00   1.2736244969135351e+00   1.2880335078945351e+00   1.3351948937669313e+00   1.3387866123746957e+00   1.2026974329117950e+00   1.2492155158298754e+00   1.2636065855728467e+00   1.2805967221050985e+00   1.3277129417989486e+00   1.2442380466547120e+00   1.2710006738178381e+00   1.2056951769254780e+00   1.2719167683336332e+00   1.3318992344789600e+00   1.2538383567361411e+00   1.2848914575087351e+00   1.3268540891976133e+00   1.2683857896748882e+00   1.2499246116302412e+00   1.2886813706418228e+00   1.2207446951244068e+00   1.3059328036048483e+00   1.3242841529240112e+00   1.1867487622391379e+00   1.2618078879243835e+00   1.2569385350289999e+00   1.1969776313588805e+00   1.3076852554108891e+00   1.3112008020177808e+00   1.2784565549026616e+00   1.3141844629676289e+00   1.3043708992291225e+00   1.3465564929726399e+00   1.2610726156371064e+00   1.2774841130352406e+00   1.2711062895837013e+00   1.3062334352266078e+00   1.2971837840239915e+00   1.2581279615038132e+00   1.2724890969182174e+00   1.2764593471968200e+00   1.2659952399434011e+00   1.3286704370060725e+00   1.2826492543804844e+00   1.1816266394346553e+00   1.2005048528104454e+00   1.2682729961818517e+00   1.2923838276080242e+00   1.2587964750477649e+00   1.2005959051380997e+00   1.3169261979018994e+00   1.2432582991866543e+00   1.1592380286489123e+00   1.2829835602888009e+00   1.2357790495978744e+00   1.2659719303275396e+00   1.2657037064962298e+00   1.2238186086553460e+00   1.2883355628183035e+00   1.2701080864432612e+00   1.2722436922013236e+00   1.2651468676187747e+00   1.2834079825441467e+00   1.2931109474666513e+00   1.2753550139305603e+00   1.3117470856868507e+00   1.2644526693823184e+00   1.2956535692923843e+00   1.2715838814495519e+00   1.2636349469629382e+00   1.2871310475902114e+00   1.2723874723734288e+00   1.2703645489380286e+00   1.2613963674116815e+00   1.2891628346146748e+00   1.1600563221108362e+00   1.2810790384574688e+00   1.2633360640637701e+00   1.3009053738541978e+00   1.2890278868585276e+00   1.3045830997364081e+00   1.2494257715436989e+00   1.2423444520060218e+00   1.2533655235918617e+00   1.3072496457392280e+00   1.2477273314698492e+00   1.2731248723239215e+00   1.2885284188887625e+00   1.2750700706551292e+00   1.2347557090897321e+00   1.2338969121283023e+00   1.2209265823667308e+00   1.3162663712327698e+00   1.3441115786915339e+00   1.2523737828927939e+00   1.2827077644789431e+00   1.1581911158669780e+00   1.2617196206180801e+00   1.3388437382999787e+00   1.3139128872213801e+00   1.2983268868795634e+00   1.2341313988397355e+00   1.2661370523122593e+00   1.3194025133436098e+00   1.3388766051179923e+00   1.2755008250531257e+00   1.3178842767912151e+00   1.3135904922053854e+00   1.3105221623225842e+00   1.2835367906676447e+00   1.2899456788837198e+00   1.2940510814979465e+00   1.2798433560752658e+00   1.3149009412685446e+00   1.3431875919865692e+00   1.2856109898540553e+00   1.1750416002633228e+00   1.3274289068115079e+00   1.3112628785942859e+00   1.2480873438510440e+00   1.2688293073826986e+00   1.2071634896587649e+00   1.2530254564692800e+00   1.2695953836361651e+00   1.2610445950018987e+00   1.2606609796337396e+00   1.2595980286253217e+00   1.3914219501935534e+00   1.2787842659212012e+00   1.3404671756595765e+00   1.3326517378833467e+00   1.3120438196931741e+00   1.2312929360196210e+00   1.3095981982743032e+00   1.3082412845990115e+00   1.2837723248519095e+00   1.3518156085630759e+00   1.3216206764332901e+00   1.3528814960418776e+00   1.2911102775750232e+00   1.3109666660171486e+00   1.2957730622082111e+00   1.2347432849298352e+00   1.2910699412040256e+00   1.3133877879312275e+00   1.3363805395603103e+00   1.4079572279159542e+00   1.2839411569462793e+00   1.3578233966537947e+00   1.3687183039019541e+00   1.3015162167202645e+00   1.2778572261752781e+00   1.2938514330302107e+00   1.3704144560436931e+00   1.3375915653411026e+00   1.2711849990952524e+00   1.3336001066997827e+00   1.3022747136906465e+00   1.2881865701418331e+00   1.2897653811486118e+00   1.2210962497777493e+00   1.2809798950715234e+00   1.3105594194491965e+00   1.2988674605922226e+00   1.2912222630068952e+00   1.2734187772640326e+00   1.3143949613537089e+00   1.3388570687725689e+00   1.3006134212513552e+00   1.3335413798374252e+00   1.3034658885376020e+00   1.2827814663608519e+00   1.2736195029101531e+00   1.2848720013095081e+00   1.2896928003709414e+00   1.2837455233357351e+00   1.2907515434533017e+00   1.2798089581854077e+00   1.3779522674308178e+00   1.2890819846673769e+00   1.3404915171766563e+00   1.2520222826439527e+00   1.3000775734811056e+00   1.2655938675537490e+00   1.2066494468192195e+00   1.2974258321337362e+00   1.2847453050907947e+00   1.2562727347455307e+00   1.3046209928477870e+00   1.2885717699284238e+00   1.2838860000119470e+00   1.2773228390669902e+00   1.2861678377493777e+00   1.2867566632591996e+00   1.2798069959470486e+00   1.3155484309726506e+00   1.3162385835443844e+00   1.2585722212670258e+00   1.2725266224835468e+00   1.2781212487500011e+00   1.2754409409674390e+00   1.2475287108738500e+00   1.1870367737628817e+00   1.2861724480012677e+00   1.3044366132907330e+00   1.2752755966184097e+00   1.2775448086999570e+00   1.2816296994905503e+00   1.2788923962684511e+00   1.2790799371188406e+00   1.2802910329755539e+00   1.2238367793401346e+00   1.2524334875804193e+00   1.2921051355161910e+00   1.2865827079729470e+00   1.2979560746742389e+00   1.1825671358660601e+00   1.2779391579719974e+00   1.2730483089231770e+00   1.2251850407943430e+00   1.3282952781318513e+00   1.3276921226377185e+00   1.1948614197332210e+00   1.1997366895313797e+00   1.2742852369258231e+00   1.2261393172856911e+00   1.2573853620155271e+00   1.2569036220122152e+00   1.3537305936898949e+00   1.3083857802233354e+00   1.2437919721329682e+00   1.2565883938212210e+00   1.2546412613414299e+00   1.2196515568991451e+00   1.1331324767213358e+00   1.2568419997392071e+00   1.2632090043362392e+00   1.2427173780307514e+00   1.2237117118082035e+00   1.1715430706717334e+00   1.1368888313842624e+00   1.1883469899805037e+00   1.1946941210025346e+00   1.1560247201813427e+00   1.2504789013531925e+00   1.3257308504476195e+00   1.3211059718786762e+00   1.3296573726102230e+00   1.2953149847778327e+00   1.2807469291978306e+00   1.2824964414838924e+00   1.2512020685594232e+00   1.3340866188117488e+00   1.2799074901857010e+00   1.3044315732104710e+00   1.2968697226224823e+00   1.2819785673905020e+00   1.2300397158920446e+00   1.2837558592154028e+00   1.2648232381931213e+00   1.3228318684164655e+00   1.2592614095318184e+00   1.1620076061158600e+00   1.2575061909421639e+00   1.3152260435741834e+00   1.3189189115315185e+00   1.3581575069715535e+00   1.3216991287731090e+00   1.2160761731893313e+00   1.2602277627013407e+00   1.3010286256168759e+00   1.3204382512028241e+00   1.2986280573344888e+00   1.2924997406332988e+00   1.2946089945579766e+00   1.3315032369484725e+00   1.2262912606160523e+00   1.2912293972282338e+00   1.2767466491760882e+00   1.1813914480090715e+00   1.1598400947136225e+00   1.2342388942983855e+00   1.2936786124716793e+00   1.2780037590835933e+00   1.2091810257841593e+00   1.2682569713958196e+00   1.2780054150736233e+00   1.2888671018877413e+00   1.2570232624632294e+00   1.2808092149120753e+00   1.2745798673831583e+00   1.2066857261175685e+00   1.2535085088015243e+00   1.2732018918433219e+00   1.2496551227935233e+00   1.2670336953743753e+00   1.2653548108082686e+00   1.2786080625161929e+00   1.2877659901271685e+00   1.2846855013709775e+00   1.2732026385955686e+00   1.2346554424405372e+00   1.2588096443299348e+00   1.2969020466653383e+00   1.2642597480916731e+00   1.2414134862742034e+00   1.1993106502428537e+00   1.2748441510886239e+00   1.2530611809957906e+00   1.2488207710104462e+00   1.3183320289214957e+00   1.2509903824037212e+00   1.2060314614511749e+00   1.3466503506304861e+00   1.3439708362228557e+00   1.2892804357219962e+00   1.2641035206930937e+00   1.2463271405456489e+00   1.3537911451817772e+00   1.3264844112890577e+00   1.3197350567467405e+00   1.3449178456773707e+00   1.3254825326337321e+00   1.3362472514336190e+00   1.3093048265400475e+00   1.2810105877136673e+00   1.2847312776519288e+00   1.2814224254251885e+00   1.2913016857680559e+00   1.1559417966363008e+00   1.2151726455928851e+00   1.3154484537754445e+00   1.2155221633589977e+00   1.3364977521430648e+00   1.2982567182681815e+00   1.2780640647422552e+00   1.2877628563602030e+00   1.3165877350030972e+00   1.3087893495830174e+00   1.3487421836407516e+00   1.2582189904779115e+00   1.2783397450363168e+00   1.3040055776619730e+00   1.2775916824970430e+00   1.3103970299402981e+00   1.2379673040609196e+00   1.2894099022038923e+00   1.2943736984588086e+00   1.2372372230179514e+00   1.2342353514340496e+00   1.2087103241393637e+00   1.2552310773974524e+00   1.2351011342604052e+00   1.2621794911180824e+00   1.3016264392987482e+00   1.2894560737840202e+00   1.2413708394902943e+00   1.2884630350418280e+00   1.3461025559808910e+00   1.3390840191789206e+00   1.3061131582414938e+00   1.2745757350506530e+00   1.2350615303585379e+00   1.2323456144939766e+00   1.1661382797772892e+00   1.2421159456714848e+00   1.2418941690249621e+00   1.1981350583780002e+00   1.3009575788548606e+00   1.3015616275489250e+00   1.2140133704829668e+00   1.2530967661816677e+00   1.3713610245702776e+00   1.4197733535360353e+00   1.2320972453888535e+00   1.1996876648451493e+00   1.2168199376855409e+00   1.3255711234131209e+00   1.3462081576668306e+00   1.3661728150776884e+00   1.2439191386219279e+00   1.3009492783749803e+00   1.2750224506995378e+00   1.3025632711719946e+00   1.2817994594302815e+00   1.3188957526223604e+00   1.2920423041510882e+00   1.2775373358852220e+00   1.2795644188833173e+00   1.2940344717516987e+00   1.2743043617515479e+00   1.2793266347134462e+00   1.2752080726871864e+00   1.3246453402014904e+00   1.3587550377700279e+00   1.4214188293716876e+00   1.4205905071811626e+00   1.2993764694728314e+00   1.3018082429509941e+00   1.1792109467088754e+00   1.2264426544895417e+00   1.3157662286089242e+00   1.3740417756933931e+00   1.3201186393727447e+00   1.3481983359129626e+00   1.2909210018766795e+00   1.3076233354378495e+00   1.2575619073236475e+00   1.2005547299320309e+00   1.3963594677210496e+00   1.2872857029257057e+00   1.3343356883294351e+00   1.2663051658662383e+00   1.2612958533004099e+00   1.2873401308464203e+00   1.3121119241421186e+00   1.3039501435909491e+00   1.3073549927172330e+00   1.2731658481230521e+00   1.3392341783276218e+00   1.3133065103590618e+00   1.3900399261523706e+00   1.2081052908092924e+00   1.3194086584824731e+00   1.3196063770148270e+00   1.2857658378078101e+00   1.2738850077159189e+00   1.2606306768838942e+00   1.2662816331388438e+00   1.2089177982426669e+00   1.4191783021228637e+00   1.2285513989516845e+00   1.2831803256973406e+00   1.3087263943670309e+00   1.2366005780496216e+00   1.2553768872226148e+00   1.2508866982912146e+00   1.2471874135565211e+00   1.3425396008941752e+00   1.3357238894063899e+00   1.3383939016026407e+00   1.3169267958522257e+00   1.3210830350000429e+00   1.3060397613386108e+00   1.3194285022693839e+00   1.2530161755417903e+00   1.2580915866721165e+00   1.2893004138327036e+00   1.2836723152547829e+00   1.3074851020283496e+00   1.3425168232927216e+00   1.3204514319737788e+00   1.3229945222260819e+00   1.2480482713966805e+00   1.2511453955215537e+00   1.2747636405978890e+00   1.3130415478549133e+00   1.3341492542082409e+00   1.3070383522382856e+00   1.2819951384162920e+00   1.2963673365201021e+00   1.2762576733270408e+00   1.2761115115351997e+00   1.3765981051362886e+00   1.3552884287687512e+00   1.4062255821569178e+00   1.1570960552359828e+00   1.2457992432094822e+00   1.1598737934164931e+00   1.3078097968516920e+00   1.3341196674852449e+00   1.2913451771510298e+00   1.2945622184281464e+00   1.2469419283134489e+00   1.2592462645958173e+00   1.2761587980974392e+00   1.2854661677402881e+00   1.2920054595148354e+00   1.2978007276161694e+00   1.2528314058041494e+00   1.3165920207429838e+00   1.2603425872592178e+00   1.2752998630848564e+00   1.2908562508016383e+00   1.2830093804834690e+00   1.2910043401097686e+00   1.3195239262587706e+00   1.2963827874876324e+00   1.2581354889386966e+00   1.2634345892596710e+00   1.2510076983138230e+00   1.2778915541797338e+00   1.3918461682966083e+00   1.3262700621433474e+00   1.3086870854600472e+00   1.3525130472796276e+00   1.2762541870010999e+00   1.2124292927761187e+00   1.2107644809351754e+00   1.2305540912030566e+00   1.2689725748998157e+00   1.3041664136544926e+00   1.2829067635102567e+00   1.2871857835672671e+00   1.3517890866685185e+00   1.3112009372427136e+00   1.2894155362355808e+00   1.2863809956860834e+00   1.3003984310604235e+00   1.3543232196975328e+00   1.4218297016047610e+00   1.2938987185340656e+00   1.2899916176935062e+00   1.3462553841600404e+00   1.3091629629581378e+00   1.3355064985553395e+00   1.3263374464287203e+00   1.3147477156729053e+00   1.3174939373975767e+00   1.2649788703548297e+00   1.2422547998939213e+00   1.2805151563839394e+00   1.2392765705412838e+00   1.2257063646639710e+00   1.2766309570118697e+00   1.2760333663453112e+00   1.2595951808488115e+00   1.3391286579262343e+00   1.3543219899662331e+00   1.2044853481356277e+00   1.2058718944592799e+00   1.2072363578700405e+00   1.1599168634602262e+00   1.1620763135566456e+00   1.1363381229846754e+00   1.2089146691859103e+00   1.1999177569245594e+00   1.2350318765656390e+00   1.1760262208961949e+00   1.2587122096231305e+00   1.2215837988551281e+00   1.2053599819425558e+00   1.2263734636356902e+00   1.2321504059568653e+00   1.2002374250307797e+00   1.2046097323148270e+00   1.1965794915711387e+00   1.3346291266868662e+00   1.3559711506611152e+00   1.2959293124804161e+00   1.2886883713804227e+00   1.2738970165089583e+00   1.3060914527603582e+00   1.2497097619976403e+00   1.2690159406272203e+00   1.3221672310098807e+00   1.3555080835566202e+00   1.2082955353069658e+00   1.1986265931458864e+00   1.2451285239749070e+00   1.2667390759236188e+00   1.2744307216556783e+00   1.2939317472178726e+00   1.2820013482755930e+00   1.2592703412615656e+00   1.3800564626130525e+00   1.3499574425407612e+00   1.3536024216173286e+00   1.3386168023213525e+00   1.4070930382716036e+00   1.4194213010387005e+00   1.3793825192811364e+00   1.3243894130493512e+00   1.3218227402457481e+00   1.3543753306042021e+00   1.3162981519550290e+00   1.3538989674229416e+00   1.4049940690736815e+00   1.3575446939736380e+00   1.3351784500058470e+00   1.3602017369872732e+00   1.2258339091572024e+00   1.1785552496385843e+00   1.2023897626381854e+00   1.1793945526344645e+00   1.1538303468125097e+00   1.1832974157757874e+00   1.0904190281436132e+00   1.0907216851040624e+00   1.1325274459992223e+00   1.1580633116704753e+00   1.3020977099945090e+00   1.3522867221489410e+00   1.2495044743199215e+00   1.2244194600320115e+00   1.2755233699645530e+00   1.2674734766425375e+00   1.3243569130597930e+00   1.2485281752303112e+00   1.2353989778456662e+00   1.2417661565344000e+00   1.1801801879263174e+00   1.2803090641293891e+00   1.2901589940095852e+00   1.2670354967276836e+00   1.2821524458626214e+00   1.2688610186336409e+00   1.2687706372701388e+00   1.2194709829196526e+00   1.2580853013112445e+00   1.4041278442316334e+00   1.3550170654274032e+00   1.3079450352679785e+00   1.3446288548172070e+00   1.3703470971490834e+00   1.3302871263725009e+00   1.2344962427427408e+00   1.2359596923363769e+00   1.2496970104494629e+00   1.2639939640781703e+00   1.2750958239003478e+00   1.2798364145129177e+00   1.2756046366940679e+00   1.1830028123161758e+00   1.2847478367795557e+00   1.3400425154443267e+00   1.3498295350335647e+00   1.2016091503972186e+00   1.3079738999218311e+00   1.2686145433528087e+00   1.4221798687005922e+00   1.3684380965103848e+00   1.2534664999279030e+00   1.4226975382796807e+00   1.3687845117680237e+00   1.2362894116852252e+00   1.2261717034980986e+00   1.2411199964240203e+00   1.2171203618555111e+00   1.2597622824865331e+00   1.2726149318513309e+00   1.2891485597104120e+00   1.2515140907864837e+00   1.2629850697560288e+00   1.3529558685304659e+00   1.1785210720112438e+00   1.2015576576183724e+00   1.2152184306390430e+00   1.2503153901617245e+00   1.3195326093029991e+00   1.2876190426197358e+00   1.1976948049573195e+00   1.2514092776616741e+00   1.2341049896705714e+00   1.3191086853585119e+00   1.2507043647737286e+00   1.1796312546808756e+00   1.2524493372021055e+00   1.2736444946566088e+00   1.2369689655193341e+00   1.2477334875664070e+00   1.1834524220575036e+00   1.2182867227584568e+00   1.1778747145022368e+00   1.2974617088430662e+00   1.3099864219578363e+00   1.1555516588553145e+00   1.2021362701524783e+00   1.3074167551309854e+00   1.2942717634105325e+00   1.3217570234068317e+00   1.2679448254195178e+00   1.2792338282908178e+00   1.3058384471849713e+00   1.2362670906141098e+00   1.1622648250358281e+00   1.3336554638052598e+00   1.3277449189246913e+00   1.2744776496718169e+00   1.3044740591326129e+00   1.2622123097404150e+00   1.3227326178607679e+00   1.3081405364103009e+00   1.3098580662175932e+00   1.3289604792743384e+00   1.2286260353949923e+00   1.2665966774388913e+00   1.2081205074884991e+00   1.2373721582665302e+00   1.2240358921543277e+00   1.2279454180663032e+00   1.3094322787266490e+00   1.2606630161849066e+00   1.3891498017262247e+00   1.3572219130488090e+00   1.2915147603553558e+00   1.2867203235634792e+00   1.2235360598711327e+00   1.2864370657029174e+00   1.2642368123807926e+00   1.4031943708095085e+00   1.3388695877965651e+00   1.2357699772688513e+00   1.1842286958848494e+00   1.2096147238192421e+00   1.1601380835119677e+00   1.3104168723555096e+00   1.3304662832915497e+00   1.3416819197726977e+00   1.3186021676857000e+00   1.2079803580838668e+00   1.2635611969891924e+00   1.2640107562998855e+00   1.2532935924432145e+00   1.2602052222551097e+00   1.2613793327282590e+00   1.2526867131814279e+00   1.2704949123358222e+00   1.2600748935173107e+00   1.2842059670856094e+00   1.2983724832312622e+00   1.3068775695748083e+00   1.2776651646349262e+00   1.2715052011632362e+00   1.2860406492406351e+00   1.2833044258224882e+00   1.2559180382906088e+00   1.2833749824085390e+00   1.2772075258719653e+00   1.1626825315716949e+00   1.2160228883863182e+00   1.1872818004245913e+00   1.2137912179850050e+00   1.2859010893795182e+00   1.3074653607949600e+00   1.2530646303418074e+00   1.2613747795720072e+00   1.2819988323544707e+00   1.2893076568202906e+00   1.2801334187729687e+00   1.2978604014117618e+00   1.3232627651262592e+00   1.2843733834851463e+00   1.2864931106709745e+00   1.2949871071570487e+00   1.3206656708950359e+00   1.3545206224701702e+00   1.2952560936513207e+00   1.2698514040836106e+00   1.2697668848234205e+00   1.2850267179048456e+00   1.3265684306827694e+00   1.3049356524446167e+00   1.1556607384065549e+00   1.3688630577804521e+00   1.3698687875141313e+00   1.2885677758576524e+00   1.1965830905420620e+00   1.2906599888021759e+00   1.2764325193243604e+00   1.2515212796269073e+00   1.2046345471408615e+00   1.2372390446048416e+00   1.1792343645920922e+00   1.2921820634474228e+00   1.2794446411773268e+00   1.3284523614513188e+00   1.3257518675339821e+00   1.1795068599247873e+00   1.2107578645907564e+00   1.2889317391764927e+00   1.2557683287797361e+00   1.2804330282428960e+00   1.3349650626703393e+00   1.3352996882737105e+00   1.2912810173885052e+00   1.2756698785312404e+00   1.3141093681074969e+00   1.3359562159075526e+00   1.2562567616341995e+00   1.2873751020979856e+00   1.16268672904643