<?xml version="1.0"?>
<VTKFile type="UnstructuredGrid"  version="0.1"  >
<UnstructuredGrid>
<Piece  NumberOfPoints="1109" NumberOfCells="1972">
<Points>
<DataArray  type="Float64"  NumberOfComponents="3"  format="ascii">0 1 0  0 0 0  1 0 0  1 1 0  0.8968458805257912 0.5501332934257217 0  0.9 0.5 0  0.8968458805257911 0.4498667065742781 0  0.8874332644514524 0.4005240451340579 0  0.8719105943553006 0.3527501789261288 0  0.8505226720175453 0.3072985303593135 0  0.823606797749979 0.2648858990830106 0  0.7915874509685645 0.2261811576285244 0  0.7549695958994758 0.1917947028896841 0  0.7143307179915988 0.162268829799194 0  0.6703117166260287 0.138069179013592 0  0.6236067977499788 0.1195773934819385 0  0.5749525258342897 0.1070850997085245 0  0.5251162078117251 0.1007893086286913 0  0.4748837921882747 0.1007893086286913 0  0.4250474741657101 0.1070850997085245 0  0.376393202250021 0.1195773934819386 0  0.3296882833739712 0.1380691790135921 0  0.2856692820084015 0.1622688297991939 0  0.2450304041005242 0.1917947028896843 0  0.2084125490314353 0.2261811576285246 0  0.1763932022500209 0.2648858990830109 0  0.1494773279824546 0.3072985303593139 0  0.1280894056446994 0.3527501789261288 0  0.1125667355485475 0.4005240451340581 0  0.1031541194742088 0.4498667065742783 0  0.09999999999999998 0.5 0  0.1031541194742089 0.5501332934257218 0  0.1125667355485476 0.5994759548659421 0  0.1280894056446995 0.6472498210738713 0  0.1494773279824546 0.6927014696406861 0  0.176393202250021 0.7351141009169893 0  0.2084125490314355 0.7738188423714756 0  0.2450304041005241 0.8082052971103157 0  0.2856692820084012 0.837731170200806 0  0.3296882833739709 0.8619308209864078 0  0.3763932022500212 0.8804226065180615 0  0.4250474741657101 0.8929149002914756 0  0.4748837921882746 0.8992106913713087 0  0.5251162078117254 0.8992106913713087 0  0.5749525258342899 0.8929149002914755 0  0.623606797749979 0.8804226065180614 0  0.6703117166260291 0.8619308209864078 0  0.7143307179915986 0.8377311702008061 0  0.754969595899476 0.8082052971103157 0  0.7915874509685646 0.7738188423714755 0  0.823606797749979 0.7351141009169893 0  0.8505226720175454 0.6927014696406861 0  0.8719105943553006 0.6472498210738712 0  0.8874332644514524 0.599475954865942 0  0 0.5 0  1 0.5 0  0.5 0 0  0.5 1 0  0 0.75 0  0 0.25 0  1 0.25 0  1 0.75 0  0.75 0 0  0.25 0 0  0.25 1 0  0.75 1 0  0 0.625 0  0 0.375 0  1 0.375 0  1 0.625 0  0.625 0 0  0.375 0 0  0.375 1 0  0.625 1 0  0.125 0 0  0.875 0 0  1 0.125 0  0 0.875 0  0.125 1 0  0.875 1 0  0 0.125 0  1 0.875 0  0.1443946775413214 0.1213187937376868 0  0.8556053224586788 0.8786812062623132 0  0.8556053224586785 0.1213187937376867 0  0.1275360334547992 0.8724639665452008 0  0.9261623581710797 0.1875 0  0.09234641934319709 0.2082689144241477 0  0.9076535806568029 0.7917310855758523 0  0.08970099689351971 0.7603836651344988 0  0.2182130526099624 0.9079579669686324 0  0.07086411995581518 0.07086411995581518 0  1 0.0625 0  0.9375 0 0  0.0625 1 0  0 0.9375 0  0.9291358800441849 0.9291358800441849 0  0.7304772975931939 0.08076335202639119 0  0.2695227024068061 0.08076335202639115 0  0.7697819974699807 0.9105968468121929 0  1 0.6875 0  1 0.3125 0  0.06784168511078095 0.2966417331842567 0  0 0.6875 0  0.1875 0 0  0.8125 0 0  0.9212459744619301 0.2681742056774029 0  0.6875 1 0  0.3125 1 0  0.922097136530977 0.07790286346902295 0  0.9261304603587264 0.7150772115644075 0  0 0.8125 0  0.07432186328509671 0.9256781367149033 0  0.06317182982585627 0.84375 0  0.8548473925302104 0.1928285354262928 0  0.6710199663399635 0.9319471281137308 0  0.2914274450692525 0.9272721924131209 0  0.9226595291420543 0.8597667107019437 0  0.0773404708579461 0.1402332892980563 0  0.8125 1 0  0.06054886616517211 0.65625 0  0.9362657027224049 0.3336129027547622 0  0.1841195715992005 0.8363784907223111 0  0.6625377124131507 0.06023416665880475 0  0.3125 0 0  0.34375 0.06016090820395464 0  0.2153846372786545 0.1270381302276244 0  0.8024953780019808 0.07187189600048093 0  0.1546395545758083 0.9367961467266345 0  0.5625 1 0  0.4375 0 0  0.4375 1 0  0.5625 0 0  0.1844766880788185 0.06724298999790632 0  0.9369725282473387 0.6419809811402504 0  0.791523351719164 0.1369023590147849 0  0.8285961364903059 0.9374018659319692 0  1 0.4375 0  0 0.4375 0  1 0.5625 0  0 0.5625 0  0 0.3125 0  1 0.8125 0  0.0625 0 0  0 0.0625 0  0 0.1875 0  1 0.1875 0  1 0.9375 0  0.9375 1 0  0.6875 0 0  0.1875 1 0  0.8126465958421825 0.8329348088176629 0  0.1550798535647612 0.1867680086445373 0  0.8631981559835366 0.06032295929500282 0  0.1449089435554358 0.7884432695884597 0  0.3538206140027237 0.9399564250283491 0  0.944997661525766 0.4151121561005554 0  0.05500233847423393 0.5848878438994446 0  0.0520912947951912 0.40625 0  0.59375 0.05063263303723638 0  0.6113142584645842 0.9411585052804305 0  0.402402637527157 0.05243074290023167 0  0.05237021982595785 0.7146869946988353 0  0.9514280734197595 0.53125 0  0.04857192658024048 0.46875 0  0.1138995451272664 0.2618291859344329 0  0.1276043399716366 0.06698080255494471 0  0.9496852823490703 0.5873315358652272 0  0.7164226875694513 0.8936714072472519 0  0.728445758907293 0.9483406189827143 0  0.05037626111865807 0.3500677784994627 0  0.9425695009311538 0.1320174568820216 0  0.4108317852857326 0.9488345682840208 0  0.5398628985995173 0.04893133705064829 0  0.46875 0.04573672429098317 0  0.4652931800096448 0.9529811055869081 0  0.53125 0.9542632757090168 0  0.8785971272885281 0.7441734326495726 0  0.8518416617605847 0.7931754903661554 0  0.04183404050302509 0.78125 0  0.7612395846848441 0.8595654412716175 0  0.2310588911243982 0.8579303197600836 0  0.04148050284378633 0.21875 0  0.9494864361787021 0.7612608042848362 0  0.9500000000000001 0.4721339993173143 0  0.04999999999999998 0.5278660006826856 0  0.8781553628189985 0.9246252444972441 0  0.8731991046476956 0.2435858407989878 0  0.09811738497342513 0.6912987895906199 0  0.78125 0.9600244726998853 0  0.09951704281279977 0.8094116423849811 0  0.1723930843372325 0.8914409560171174 0  0.21875 0.9592823984315264 0  0.8808053857873319 0.8333253975559158 0  0.8963977713581862 0.1485308906960134 0  0.9538351164349618 0.2296733193971382 0  0.9502525126806526 0.8180081280125184 0  0.2312490385075739 0.04727387874777968 0  0.2715914187620846 0.8835921407480765 0  0.8075381809024645 0.880775593205643 0  0.71875 0.03518728418751645 0  0.28125 0.03518728418751642 0  0.7646042202168328 0.04444036111707996 0  0.9023329991729737 0.03666350737326187 0  0.03401531498238862 0.15625 0  0.1188530488980251 0.1590855287670435 0  0.9585274478449393 0.2940602659505009 0  0.122777080947294 0.7293581095092172 0  0.9670375667902916 0.09375 0  0.2005134857209875 0.1810792546569654 0  0.04567406045797464 0.8878541658538743 0  0.09375 0.966869578205468 0  0.1562008719445321 0.03232788333739163 0  0.8953932105853648 0.3139420780646932 0  0.7990572522972532 0.1815363722387022 0  0.0968875242781685 0.03463409819727443 0  0.03223722036876893 0.09375 0  0.9004223587754672 0.9633108159792649 0  0.9677627796312311 0.90625 0  0.1015654613822437 0.1029847255361322 0  0.9612688796250578 0.9612688796250578 0  0 0.03125 0  0.03125 0 0  0.04144949962501476 0.9585505003749852 0  0.9558898336496962 0.04411016635030385 0  0.9068917513393455 0.6748714165270275 0  0.1368346895292699 0.830580202512584 0  0.1325215314767946 0.2232188145997174 0  0.07053058491102715 0.2523250971165124 0  0.28125 1 0  0.2618257196382527 0.9585732837283344 0  0.08628220552312613 0.8784418410901162 0  0.6885162251696433 0.09694521726220126 0  0.7451861497985837 0.1260293295250874 0  0.313422114933215 0.09491014745286984 0  0.2604190570795071 0.1249189143540631 0  0.9242490330121279 0.3761177923443456 0  0.8294827367589617 0.1534479284350518 0  0 0.28125 0  0.1085704015556412 0.3026527142683792 0  0.6454377779583714 0.9642341400769985 0  0.1735682150935896 0.1501527832362767 0  0.9118639212665761 0.2270478094042325 0  0.9675029085737417 0.7231519194735394 0  0.9540854621793986 0.6818714685662951 0  0.3411855214203015 0.9011195850022233 0  0.2203778463487443 0.08657146517086198 0  0.04103470738435357 0.04103470738435357 0  0.5692124642834736 0.9350661676969988 0  0.1143804055696223 0.9319617439078584 0  0.08871656954519293 0.3663659127109965 0  0.9630811790855398 0.168250321868886 0  0.8941478109554366 0.1077225817667272 0  0.7685953432959879 0.09339992494635127 0  0.9613334331586147 0.8673647296762501 0  0.84375 0 0  0.8276419188889859 0.03874003995670209 0  0.4987074584280061 0.9312004428379874 0  0.4999999999999999 0.07012294039149713 0  0.906353444207591 0.8962759602721756 0  0.8317000502825128 0.2255938539236174 0  0.060982293117454 0.1847248153131282 0  0.84375 1 0  0.8601163332513452 0.9625346208269469 0  0.07696867235812772 0.6190771663714262 0  0.03866375363197156 0.624370156890833 0  0.386395970129115 0.9182613855572013 0  0.59375 1 0  0.03763634871355165 0.2725691404761272 0  1 0.34375 0  0.9619513789393942 0.3638256452123659 0  0.1705891391383945 0.2215719862571997 0  0.2993345649440622 0.9643978827856838 0  0.2548390693531445 0.917543736811073 0  0.4376701674058487 0.06983678836603174 0  0.6249880952696493 0.07804203554412367 0  0.8891633930840495 0.7080603551933189 0  0 0.65625 0  0.8857454763750297 0.2783067670731572 0  1 0.65625 0  0 0.59375 0  0.9147359581367025 0.7498372322849914 0  0.34375 1 0  0.08128436453222096 0.3306040779845135 0  0.8370204413255111 0.08803482611562097 0  0.4399236117509409 0.9264634199869409 0  0.3763243110806382 0.08093997073896844 0  1 0.78125 0  0.3058827875685617 0.8943637152968825 0  0.891027260700638 0.1971556622156984 0  0.1814462944911871 0.9630031969500565 0  0.1812917788273262 0.1067749496803429 0  0.2291605611046911 0.1598957180171764 0  0.630525566101238 0.03837025329843378 0  0.03363261960646192 0.92260900189631 0  0.2960793559902691 0.1260912307633523 0  0.03663553287191564 0.8179172045954961 0  0.02996523389584273 0.8560987956667739 0  0.09880166525369549 0.8450583124835681 0  0.6923212173088138 0.150169004406393 0  0.502
[...]
<PointData  Vectors="u"> 
<DataArray  type="Float64"  Name="u"  NumberOfComponents="3" format="ascii">0.0000000000000000e+00 0.0000000000000000e+00 0.0000000000000000e+00  0.0000000000000000e+00 0.0000000000000000e+00 0.0000000000000000e+00  0.0000000000000000e+00 0.0000000000000000e+00 0.0000000000000000e+00  0.0000000000000000e+00 0.0000000000000000e+00 0.0000000000000000e+00  -5.1146249875077411e-02 -9.9733963929083368e-03 0.0000000000000000e+00  -5.0220260650917010e-02 -2.5201944927373555e-05 0.0000000000000000e+00  -5.1088364365270152e-02 9.9431764571024754e-03 0.0000000000000000e+00  -5.3191205532849367e-02 2.1105155061763525e-02 0.0000000000000000e+00  -5.5903850497144497e-02 3.3863740990147058e-02 0.0000000000000000e+00  -5.8736313717861866e-02 4.6959575245951991e-02 0.0000000000000000e+00  -6.1365149891267248e-02 5.7101802379947844e-02 0.0000000000000000e+00  -6.2591617196536137e-02 6.2099838815826529e-02 0.0000000000000000e+00  -6.0332664250651397e-02 6.2254213854928998e-02 0.0000000000000000e+00  -5.2647494597364390e-02 6.0086141900146620e-02 0.0000000000000000e+00  -4.0600973591545755e-02 5.7301470140043179e-02 0.0000000000000000e+00  -2.7405456562531589e-02 5.4505604304858221e-02 0.0000000000000000e+00  -1.5395583206855095e-02 5.1978977244370402e-02 0.0000000000000000e+00  -4.9709417304327772e-03 5.0529404030747939e-02 0.0000000000000000e+00  4.9983440492416750e-03 5.0501057442020540e-02 0.0000000000000000e+00  1.5393420280875952e-02 5.1980322652048445e-02 0.0000000000000000e+00  2.7400542746254291e-02 5.4488362707961306e-02 0.0000000000000000e+00  4.0516923891180535e-02 5.7364707069371766e-02 0.0000000000000000e+00  5.2667171461128127e-02 6.0076126999015093e-02 0.0000000000000000e+00  6.0363290667457492e-02 6.2188902175965836e-02 0.0000000000000000e+00  6.2578922600059039e-02 6.2064525487174761e-02 0.0000000000000000e+00  6.1238144813104987e-02 5.7135666951021180e-02 0.0000000000000000e+00  5.8764295987321274e-02 4.7063066836319299e-02 0.0000000000000000e+00  5.5957139976555909e-02 3.3926873673916613e-02 0.0000000000000000e+00  5.3171193287407374e-02 2.1052482203216986e-02 0.0000000000000000e+00  5.1114945199450430e-02 1.0003888973175770e-02 0.0000000000000000e+00  5.0248681706657340e-02 -8.6822728037716190e-05 0.0000000000000000e+00  5.1020899303503536e-02 -9.9976924984332589e-03 0.0000000000000000e+00  5.3174398268127962e-02 -2.1120785411454734e-02 0.0000000000000000e+00  5.5885396544434147e-02 -3.3900652616257618e-02 0.0000000000000000e+00  5.8712575351522904e-02 -4.6950683324840779e-02 0.0000000000000000e+00  6.1370773699776456e-02 -5.7048217871347069e-02 0.0000000000000000e+00  6.2315595812067116e-02 -6.1865756837581803e-02 0.0000000000000000e+00  6.0087194768994080e-02 -6.2223967825143917e-02 0.0000000000000000e+00  5.2720358622765910e-02 -6.0083615476623560e-02 0.0000000000000000e+00  4.0549923631510783e-02 -5.7283441051758248e-02 0.0000000000000000e+00  2.7428728944433156e-02 -5.4527346380854567e-02 0.0000000000000000e+00  1.5405571468096410e-02 -5.2043865353211802e-02 0.0000000000000000e+00  4.9697189171903078e-03 -5.0520455495098961e-02 0.0000000000000000e+00  -4.9917693783494005e-03 -5.0481633332669154e-02 0.0000000000000000e+00  -1.5389421028613359e-02 -5.1971596266105341e-02 0.0000000000000000e+00  -2.7339020930126041e-02 -5.4524488661762821e-02 0.0000000000000000e+00  -4.0558529973696071e-02 -5.7334960169136105e-02 0.0000000000000000e+00  -5.2594938550578098e-02 -5.9928985239809537e-02 0.0000000000000000e+00  -6.0103052443475885e-02 -6.2114970734567301e-02 0.0000000000000000e+00  -6.2607563677520794e-02 -6.1889007182563967e-02 0.0000000000000000e+00  -6.1174285136007131e-02 -5.6983391045124794e-02 0.0000000000000000e+00  -5.8656020397640375e-02 -4.6956314019231248e-02 0.0000000000000000e+00  -5.5869219105108857e-02 -3.3901660778513587e-02 0.0000000000000000e+00  -5.3192481335894985e-02 -2.1111110232706273e-02 0.0000000000000000e+00  0.0000000000000000e+00 0.0000000000000000e+00 0.0000000000000000e+00  0.0000000000000000e+00 0.0000000000000000e+00 0.0000000000000000e+00  0.0000000000000000e+00 0.0000000000000000e+00 0.0000000000000000e+00  0.0000000000000000e+00 0.0000000000000000e+00 0.0000000000000000e+00  0.0000000000000000e+00 0.0000000000000000e+00 0.0000000000000000e+00  0.0000000000000000e+00 0.0000000000000000e+00 0.0000000000000000e+00  0.0000000000000000e+00 0.0000000000000000e+00 0.0000000000000000e+00  0.0000000000000000e+00 0.0000000000000000e+00 0.0000000000000000e+00  0.0000000000000000e+00 0.0000000000000000e+00 0.0000000000000000e+00  0.0000000000000000e+00 0.0000000000000000e+00 0.0000000000000000e+00  0.0000000000000000e+00 0.0000000000000000e+00 0.0000000000000000e+00  0.0000000000000000e+00 0.0000000000000000e+00 0.0000000000000000e+00  0.0000000000000000e+00 0.0000000000000000e+00 0.0000000000000000e+00  0.0000000000000000e+00 0.0000000000000000e+00 0.0000000000000000e+00  0.0000000000000000e+00 0.0000000000000000e+00 0.0000000000000000e+00  0.0000000000000000e+00 0.0000000000000000e+00 0.0000000000000000e+00  0.0000000000000000e+00 0.0000000000000000e+00 0.0000000000000000e+00  0.0000000000000000e+00 0.0000000000000000e+00 0.0000000000000000e+00  0.0000000000000000e+00 0.0000000000000000e+00 0.0000000000000000e+00  0.0000000000000000e+00 0.0000000000000000e+00 0.0000000000000000e+00  0.0000000000000000e+00 0.0000000000000000e+00 0.0000000000000000e+00  0.0000000000000000e+00 0.0000000000000000e+00 0.0000000000000000e+00  0.0000000000000000e+00 0.0000000000000000e+00 0.0000000000000000e+00  0.0000000000000000e+00 0.0000000000000000e+00 0.0000000000000000e+00  0.0000000000000000e+00 0.0000000000000000e+00 0.0000000000000000e+00  0.0000000000000000e+00 0.0000000000000000e+00 0.0000000000000000e+00  0.0000000000000000e+00 0.0000000000000000e+00 0.0000000000000000e+00  0.0000000000000000e+00 0.0000000000000000e+00 0.0000000000000000e+00  2.9770556302285825e-02 2.9162288530739038e-02 0.0000000000000000e+00  -2.9798436716375495e-02 -2.9283619841046021e-02 0.0000000000000000e+00  -2.9740157058614696e-02 2.9129028712842273e-02 0.0000000000000000e+00  2.8001239344553248e-02 -2.8062654850523932e-02 0.0000000000000000e+00  -2.1620661420687425e-02 2.3096177172078090e-02 0.0000000000000000e+00  2.8561642408167845e-02 2.9207401268209029e-02 0.0000000000000000e+00  -2.8580690145595521e-02 -2.9086391008984247e-02 0.0000000000000000e+00  3.0234864130382521e-02 -2.9147771825732881e-02 0.0000000000000000e+00  2.9487606199970210e-02 -2.9212280332311949e-02 0.0000000000000000e+00  1.1914348948293798e-02 1.1933151838726062e-02 0.0000000000000000e+00  0.0000000000000000e+00 0.0000000000000000e+00 0.0000000000000000e+00  0.0000000000000000e+00 0.0000000000000000e+00 0.0000000000000000e+00  0.0000000000000000e+00 0.0000000000000000e+00 0.0000000000000000e+00  0.0000000000000000e+00 0.0000000000000000e+00 0.0000000000000000e+00  -1.1976809971480642e-02 -1.1903416154924929e-02 0.0000000000000000e+00  -2.6124110667425583e-02 2.9264698735732231e-02 0.0000000000000000e+00  2.6192306268330186e-02 2.9307355527344123e-02 0.0000000000000000e+00  -2.9014817302142944e-02 -2.9365726511416189e-02 0.0000000000000000e+00  0.0000000000000000e+00 0.0000000000000000e+00 0.0000000000000000e+00  0.0000000000000000e+00 0.0000000000000000e+00 0.0000000000000000e+00  2.6232625634854175e-02 2.0975168500896979e-02 0.0000000000000000e+00  0.0000000000000000e+00 0.0000000000000000e+00 0.0000000000000000e+00  0.0000000000000000e+00 0.0000000000000000e+00 0.0000000000000000e+00  0.0000000000000000e+00 0.0000000000000000e+00 0.0000000000000000e+00  -2.8450011463368913e-02 2.5495559200318426e-02 0.0000000000000000e+00  0.0000000000000000e+00 0.0000000000000000e+00 0.0000000000000000e+00  0.0000000000000000e+00 0.0000000000000000e+00 0.0000000000000000e+00  -1.3589632751824201e-02 1.3585879976236585e-02 0.0000000000000000e+00  -2.7745891660426538e-02 -2.3441686926889815e-02 0.0000000000000000e+00  0.0000000000000000e+00 0.0000000000000000e+00 0.0000000000000000e+00  1.2824433334511628e-02 -1.2840057512872906e-02 0.0000000000000000e+00  1.6726983175219933e-02 -1.8619291710576451e-02 0.0000000000000000e+00  -4.1306496367193857e-02 4.1304692495777409e-02 0.0000000000000000e+00  -1.9117937548286924e-02 -2.8074389973541898e-02 0.0000000000000000e+00  2.2744396462427388e-02 -2.7728498071827382e-02 0.0000000000000000e+00  -1.9151089275521605e-02 -2.0824267848038886e-02 0.0000000000000000e+00  1.9223443173932490e-02 2.0654275180193683e-02 0.0000000000000000e+00  0.0000000000000000e+00 0.0000000000000000e+00 0.0000000000000000e+00  2.5626570516178813e-02 -1.5912452670597588e-02 0.0000000000000000e+00  -2.6424643438539376e-02 1.7574232877342156e-02 0.0000000000000000e+00  4.4119105528974710e-02 -4.4227966668578041e-02 0.0000000000000000e+00  -1.6327646697800170e-02 2.5200721263525704e-02 0.0000000000000000e+00  0.0000000000000000e+00 0.0000000000000000e+00 0.0000000000000000e+00  1.5819846454437968e-02 2.5470520182873827e-02 0.0000000000000000e+00  3.9117745606214269e-02 3.9435563067234010e-02 0.0000000000000000e+00  -2.2891339162774037e-02 2.1611434416960004e-02 0.0000000000000000e+00  1.8534244932317211e-02 -1.6652515972390081e-02 0.0000000000000000e+00  0.0000000000000000e+00 0.0000000000000000e+00 0.0000000000000000e+00  0.0000000000000000e+00 0.0000000000000000e+00 0.0000000000000000e+00  0.0000000000000000e+00 0.0000000000000000e+00 0.0000000000000000e+00  0.0000000000000000e+00 0.0000000000000000e+00 0.0000000000000000e+00  2.1017489644893503e-02 1.9548671349265637e-02 0.0000000000000000e+00  -2.7355457030566875e-02 -1.5469853084349722e-02 0.0000000000000000e+00  -4.1080273874559599e-02 4.1249851079117522e-02 0.0000000000000000e+00  -1.9286831468596010e-02 -1.7504317931016311e-02 0.0000000000000000e+00  0.0000000000000000e+00 0.0000000000000000e+00 0.0000000000000000e+00  0.0000000000000000e+00 0.0000000000000000e+00 0.0000000000000000e+00  0.0000000000000000e+00 0.0000000000000000e+00 0.0000000000000000e+00  0.0000000000000000e+00 0.0000000000000000e+00 0.0000000000000000e+00  0.0000000000000000e+00 0.0000000000000000e+00 0.0000000000000000e+00  0.0000000000000000e+00 0.0000000000000000e+00 0.0000000000000000e+00  0.0000000000000000e+00 0.0000000000000000e+00 0.0000000000000000e+00  0.0000000000000000e+00 0.0000000000000000e+00 0.0000000000000000e+00  0.0000000000000000e+00 0.0000000000000000e+00 0.0000000000000000e+00  0.0000000000000000e+00 0.0000000000000000e+00 0.0000000000000000e+00  0.0000000000000000e+00 0.0000000000000000e+00 0.0000000000000000e+00  0.0000000000000000e+00 0.0000000000000000e+00 0.0000000000000000e+00  0.0000000000000000e+00 0.0000000000000000e+00 0.0000000000000000e+00  0.0000000000000000e+00 0.0000000000000000e+00 0.0000000000000000e+00  -4.5579295120720620e-02 -4.5585381080525476e-02 0.0000000000000000e+00  4.2856811795326390e-02 4.2874579538787233e-02 0.0000000000000000e+00  -1.6829858247133185e-02 1.4942523682789512e-02 0.0000000000000000e+00  4.3937917088922314e-02 -4.3596320999176458e-02 0.0000000000000000e+00  1.5062085701982159e-02 -2.5878159082709372e-02 0.0000000000000000e+00  -2.5770167528137249e-02 8.5850888064588800e-03 0.0000000000000000e+00  2.5805825030983970e-02 -8.5032795116519403e-03 0.0000000000000000e+00  2.4181933945733813e-02 8.8735933638256631e-03 0.0000000000000000e+00  -8.5362099145660127e-03 2.3499746483045040e-02 0.0000000000000000e+00  -1.1722907024929535e-02 -2.6735281818527690e-02 0.0000000000000000e+00  9.2022136665680376e-03 2.4249882875784969e-02 0.0000000000000000e+00  1.9667390840631745e-02 -1.6626237636369248e-02 0.0000000000000000e+00  -2.3611181311348903e-02 -2.8723909119078906e-03 0.0000000000000000e+00  2.3613899920112518e-02 2.8323686108213861e-03 0.0000000000000000e+00  4.0239179941099483e-02 3.6818106982374414e-02 0.0000000000000000e+00  1.7509834310019436e-02 1.5895623339608055e-02 0.0000000000000000e+00  -2.3508195831239614e-02 -7.9757764306408237e-03 0.0000000000000000e+00  -3.3967503812669810e-02 -3.9778302324160429e-02 0.0000000000000000e+00  -1.6770337279270974e-02 -1.8891146448962337e-02 0.0000000000000000e+00  2.1512444658883072e-02 1.2822221619287236e-02 0.0000000000000000e+00  -1.3986152581427960e-02 1.5863557952171987e-02 0.0000000000000000e+00  8.2521402190381468e-03 -2.3857675145810019e-02 0.0000000000000000e+00  -3.6607385102019308e-03 2.3716129760534058e-02 0.0000000000000000e+00  2.6157364000379069e-03 2.2183861302469129e-02 0.0000000000000000e+00  2.9887756968835022e-03 -2.2850731018341244e-02 0.0000000000000000e+00  -2.6324396715188998e-03 -2.2195046554796687e-02 0.0000000000000000e+00  -4.2195425556060089e-02 -3.9150514658857619e-02 0.0000000000000000e+00  -4.4174654176751454e-02 -4.3910526970463756e-02 0.0000000000000000e+00  1.3471407156849293e-02 -1.4099282999090414e-02 0.0000000000000000e+00  -4.4546486485236181e-02 -4.6369316581965532e-02 0.0000000000000000e+00  4.4459878198211150e-02 -4.5778428129751504e-02 0.0000000000000000e+00  1.3373983088338657e-02 1.3961269329271787e-02 0.0000000000000000e+00  -1.7032500390554876e-02 -1.6882152757061685e-02 0.0000000000000000e+00  -2.4373209790044415e-02 2.5549119030425474e-03 0.0000000000000000e+00  2.4396375669329291e-02 -2.5202521369173153e-03 0.0000000000000000e+00  -1.8728361947983042e-02 -1.7374025757702114e-02 0.0000000000000000e+00  -4.2660504026796227e-02 4.0571433798412715e-02 0.0000000000000000e+00  3.8854353829759970e-02 -2.9803967690987906e-02 0.0000000000000000e+00  -1.3512678252668605e-02 -1.2876985047581424e-02 0.0000000000000000e+00  2.9019127610751639e-02 -3.0090478142585683e-02 0.0000000000000000e+00  3.0689482335516001e-02 -2.9597852335278636e-02 0.0000000000000000e+00  1.3722485904522417e-02 -1.3124206456866187e-02 0.0000000000000000e+00  -3.1582382819716731e-02 -3.2383892669333718e-02 0.0000000000000000e+00  -2.5834709094677201e-02 2.7020182267228254e-02 0.0000000000000000e+00  -1.5231901412455291e-02 1.5481352459777314e-02 0.0000000000000000e+00  -1.4445288783045381e-02 -1.6002276894664189e-02 0.0000000000000000e+00  1.5845807808970356e-02 1.5650279062463659e-02 0.0000000000000000e+00  3.7584804763739994e-02 -4.2195208616104533e-02 0.0000000000000000e+00  -3.5129417139170761e-02 -3.4516741662075162e-02 0.0000000000000000e+00  -1.1275755932601859e-02 1.3092992838317634e-02 0.0000000000000000e+00  1.1267527499035120e-02 1.3086041290801438e-02 0.0000000000000000e+00  -1.4904213214837730e-02 1.4874005987434716e-02 0.0000000000000000e+00  -9.2152429176284058e-03 7.7942141983702541e-03 0.0000000000000000e+00  9.1777118571484649e-03 1.0772893872392964e-02 0.0000000000000000e+00  3.0599064617491151e-02 3.1497054141667619e-02 0.0000000000000000e+00  -1.5917949889708485e-02 1.2884711899525867e-02 0.0000000000000000e+00  4.4329397467162530e-02 -3.9617280923627186e-02 0.0000000000000000e+00  -6.8847938516359512e-03 8.2242278419414824e-03 0.0000000000000000e+00  5.0734989943781783e-02 5.0920868026460051e-02 0.0000000000000000e+00  1.0286218690601173e-02 -1.1946241222786534e-02 0.0000000000000000e+00  8.2048754376051990e-03 -6.9080256866851679e-03 0.0000000000000000e+00  1.0243370522175155e-02 8.6601062350672789e-03 0.0000000000000000e+00  -4.1834341723405562e-02 3.1402913368900165e-02 0.0000000000000000e+00  -5.0904109537328171e-02 5.1162109481816015e-02 0.0000000000000000e+00  8.6930301720016239e-03 7.3464018220515733e-03 0.0000000000000000e+00  6.7271251082893615e-03 7.9690812490419097e-03 0.0000000000000000e+00  -9.2461968930403916e-03 -7.9034504277231254e-03 0.0000000000000000e+00  -6.6522406203844212e-03 -7.9354162763867545e-03 0.0000000000000000e+00  2.0246317764465002e-02 2.0354973308801459e-02 0.0000000000000000e+00  -5.1174910579191869e-03 -5.1078839538083350e-03 0.0000000000000000e+00  0.0000000000000000e+00 0.0000000000000000e+00 0.0000000000000000e+00  0.0000000000000000e+00 0.0000000000000000e+00 0.0000000000000000e+00  5.5547332420468913e-03 -5.5174857409242689e-03 0.0000000000000000e+00  -6.0470775433636680e-03 6.0388488384214246e-03 0.0000000000000000e+00  -3.8181592225843934e-02 -2.6944400152848449e-02 0.0000000000000000e+00  3.5928319868686262e-02 -3.6392886177003515e-02 0.0000000000000000e+00  4.1949150954513979e-02 4.1071909935083875e-02 0.0000000000000000e+00  2.4565847026660807e-02 2.3151232514552655e-02 0.0000000000000000e+00  0.0000000000000000e+00 0.0000000000000000e+00 0.0000000000000000e+00  1.3685339579927536e-02 -1.4791692736707933e-02 0.0000000000000000e+00  1.9475013267397409e-02 -2.0425072129528474e-02 0.0000000000000000e+00  -2.9223533676013030e-02 3.8657606029038852e-02 0.0000000000000000e+00  -4.0683616542736487e-02 4.3719391564280188e-02 0.0000000000000000e+00  2.8457725797098626e-02 3.7942301557139534e-02 0.0000000000000000e+00  4.0342744414970662e-02 4.3899558546626666e-02 0.0000000000000000e+00  -3.4037475418865946e-02 1.6708327819522233e-02 0.0000000000000000e+00  -3.9717723462867636e-02 3.9623947788398582e-02 0.0000000000000000e+00  0.0000000000000000e+00 0.0000000000000000e+00 0.0000000000000000e+00  4.2402280192433563e-02 3.3553074762618942e-02 0.0000000000000000e+00  -8.8049838242741582e-03 -1.5349085629730605e-02 0.0000000000000000e+00  3.9618738076682293e-02 3.9433931641757923e-02 0.0000000000000000e+00  -2.8725651812178288e-02 2.8563550194155813e-02 0.0000000000000000e+00  -1.1979679634149698e-02 -1.0515660055259647e-02 0.0000000000000000e+00  -1.8425168966402537e-02 -1.3354760720585151e-02 0.0000000000000000e+00  2.6918773789574042e-02 -4.1971914324015681e-02 0.0000000000000000e+00  2.7888631415207154e-02 2.7691569058337358e-02 0.0000000000000000e+00  5.5049652445307400e-03 5.4796873210526016e-03 0.0000000000000000e+00  -8.3543703717871756e-03 -3.1091712648330674e-02 0.0000000000000000e+00  1.6549480637736369e-02 -1.5190839321345634e-02 0.0000000000000000e+00  3.9336221313176371e-02 2.0985800337916725e-02 0.0000000000000000e+00  -1.0279058118936526e-02 1.1783300067462836e-02 0.0000000000000000e+00  -2.1512481056782284e-02 2.1562328411699184e-02 0.0000000000000000e+00  -3.0234053893678899e-02 3.0803147159655764e-02 0.0000000000000000e+00  -9.5515705965003271e-03 -1.1262899590489593e-02 0.0000000000000000e+00  0.0000000000000000e+00 0.0000000000000000e+00 0.0000000000000000e+00  -1.2417169683961586e-02 1.0906169321188496e-02 0.0000000000000000e+00  1.6116988284702532e-04 -3.3987480397667157e-02 0.0000000000000000e+00  -9.7267810264593631e-07 3.4681132431817044e-02 0.0000000000000000e+00  -1.8992934321374867e-02 -1.9341476580084525e-02 0.0000000000000000e+00  -5.2294414774111148e-02 5.1102729052049316e-02 0.0000000000000000e+00  1.7793391483924139e-02 1.9378174270602701e-02 0.0000000000000000e+00  0.0000000000000000e+00 0.0000000000000000e+00 0.0000000000000000e+00  -1.1201966686426694e-02 -9.5067725746742320e-03 0.0000000000000000e+00  3.4865029853307132e-02 -1.6470122599213693e-02 0.0000000000000000e+00  1.7106313532079323e-02 -8.3893681761174534e-03 0.0000000000000000e+00  1.6895710237560063e-02 -3.7345634067232722e-02 0.0000000000000000e+00  0.0000000000000000e+00 0.0000000000000000e+00 0.0000000000000000e+00  1.3730840569034718e-02 1.2227280848773192e-02 0.0000000000000000e+00  0.0000000000000000e+00 0.0000000000000000e+00 0.0000000000000000e+00  -1.6559001356669011e-02 8.9278626192985152e-03 0.0000000000000000e+00  5.2299956020179443e-02 5.1404575642488702e-02 0.0000000000000000e+00  1.0954875683920394e-02 -1.3714115332972206e-02 0.0000000000000000e+00  2.6892807220734043e-02 -2.8901407346801886e-02 0.0000000000000000e+00  8.1708326206795662e-03 3.3744935724441982e-02 0.0000000000000000e+00  -1.7382522205035368e-02 3.5038699250938707e-02 0.0000000000000000e+00  -4.2116787789613634e-02 -3.4934059369567963e-02 0.0000000000000000e+00  0.0000000000000000e+00 0.0000000000000000e+00 0.0000000000000000e+00  -4.2010543124024462e-02 3.6604475220057525e-02 0.0000000000000000e+00  0.0000000000000000e+00 0.0000000000000000e+00 0.0000000000000000e+00  0.0000000000000000e+00 0.0000000000000000e+00 0.0000000000000000e+00  -2.9477875750723123e-02 