<?xml version="1.0"?>
<VTKFile type="UnstructuredGrid"  version="0.1"  >
<UnstructuredGrid>
<Piece  NumberOfPoints="1109" NumberOfCells="1972">
<Points>
<DataArray  type="Float64"  NumberOfComponents="3"  format="ascii">0 1 0  0 0 0  1 0 0  1 1 0  0.8968458805257912 0.5501332934257217 0  0.9 0.5 0  0.8968458805257911 0.4498667065742781 0  0.8874332644514524 0.4005240451340579 0  0.8719105943553006 0.3527501789261288 0  0.8505226720175453 0.3072985303593135 0  0.823606797749979 0.2648858990830106 0  0.7915874509685645 0.2261811576285244 0  0.7549695958994758 0.1917947028896841 0  0.7143307179915988 0.162268829799194 0  0.6703117166260287 0.138069179013592 0  0.6236067977499788 0.1195773934819385 0  0.5749525258342897 0.1070850997085245 0  0.5251162078117251 0.1007893086286913 0  0.4748837921882747 0.1007893086286913 0  0.4250474741657101 0.1070850997085245 0  0.376393202250021 0.1195773934819386 0  0.3296882833739712 0.1380691790135921 0  0.2856692820084015 0.1622688297991939 0  0.2450304041005242 0.1917947028896843 0  0.2084125490314353 0.2261811576285246 0  0.1763932022500209 0.2648858990830109 0  0.1494773279824546 0.3072985303593139 0  0.1280894056446994 0.3527501789261288 0  0.1125667355485475 0.4005240451340581 0  0.1031541194742088 0.4498667065742783 0  0.09999999999999998 0.5 0  0.1031541194742089 0.5501332934257218 0  0.1125667355485476 0.5994759548659421 0  0.1280894056446995 0.6472498210738713 0  0.1494773279824546 0.6927014696406861 0  0.176393202250021 0.7351141009169893 0  0.2084125490314355 0.7738188423714756 0  0.2450304041005241 0.8082052971103157 0  0.2856692820084012 0.837731170200806 0  0.3296882833739709 0.8619308209864078 0  0.3763932022500212 0.8804226065180615 0  0.4250474741657101 0.8929149002914756 0  0.4748837921882746 0.8992106913713087 0  0.5251162078117254 0.8992106913713087 0  0.5749525258342899 0.8929149002914755 0  0.623606797749979 0.8804226065180614 0  0.6703117166260291 0.8619308209864078 0  0.7143307179915986 0.8377311702008061 0  0.754969595899476 0.8082052971103157 0  0.7915874509685646 0.7738188423714755 0  0.823606797749979 0.7351141009169893 0  0.8505226720175454 0.6927014696406861 0  0.8719105943553006 0.6472498210738712 0  0.8874332644514524 0.599475954865942 0  0.5 1 0  0 0.5 0  1 0.5 0  0.5 0 0  0.75 1 0  0.25 1 0  0 0.75 0  0 0.25 0  1 0.25 0  1 0.75 0  0.75 0 0  0.25 0 0  0.625 1 0  0.375 1 0  0 0.625 0  0 0.375 0  1 0.375 0  1 0.625 0  0.625 0 0  0.375 0 0  0.125 0 0  0.875 0 0  1 0.125 0  0 0.875 0  0.125 1 0  0.875 1 0  0 0.125 0  1 0.875 0  0.1443946775413214 0.1213187937376868 0  0.8556053224586788 0.8786812062623132 0  0.8556053224586785 0.1213187937376867 0  0.1275360334547992 0.8724639665452008 0  0.9261623581710797 0.1875 0  0.09234641934319709 0.2082689144241477 0  0.9076535806568029 0.7917310855758523 0  0.08970099689351971 0.7603836651344988 0  0.2182130526099624 0.9079579669686324 0  0.07086411995581518 0.07086411995581518 0  1 0.0625 0  0.9375 0 0  0.0625 1 0  0 0.9375 0  0.9291358800441849 0.9291358800441849 0  0.7304772975931939 0.08076335202639119 0  0.2695227024068061 0.08076335202639115 0  0.7697819974699807 0.9105968468121929 0  1 0.6875 0  1 0.3125 0  0.06784168511078095 0.2966417331842567 0  0 0.6875 0  0.1875 0 0  0.8125 0 0  0.9212459744619301 0.2681742056774029 0  0.3125 1 0  0.6875 1 0  0.922097136530977 0.07790286346902295 0  0.9261304603587264 0.7150772115644075 0  0 0.8125 0  0.07432186328509671 0.9256781367149033 0  0.06317182982585627 0.84375 0  0.8548473925302104 0.1928285354262928 0  0.2914274450692525 0.9272721924131209 0  0.6710199663399635 0.9319471281137308 0  0.9226595291420543 0.8597667107019437 0  0.0773404708579461 0.1402332892980563 0  0.8125 1 0  0.06054886616517211 0.65625 0  0.9362657027224049 0.3336129027547622 0  0.1841195715992005 0.8363784907223111 0  0.6625377124131507 0.06023416665880475 0  0.3125 0 0  0.34375 0.06016090820395464 0  0.2153846372786545 0.1270381302276244 0  0.8024953780019808 0.07187189600048093 0  0.1546395545758083 0.9367961467266345 0  0.5625 1 0  0.4375 0 0  0.4375 1 0  0.5625 0 0  0.1844766880788185 0.06724298999790632 0  0.9369725282473387 0.6419809811402504 0  0.791523351719164 0.1369023590147849 0  0.8285961364903059 0.9374018659319692 0  1 0.4375 0  0 0.4375 0  1 0.5625 0  0 0.5625 0  0 0.3125 0  1 0.8125 0  0.0625 0 0  0 0.0625 0  0 0.1875 0  1 0.1875 0  1 0.9375 0  0.9375 1 0  0.6875 0 0  0.1875 1 0  0.8126465958421825 0.8329348088176629 0  0.1550798535647612 0.1867680086445373 0  0.8631981559835366 0.06032295929500282 0  0.1449089435554358 0.7884432695884597 0  0.3538206140027237 0.9399564250283491 0  0.944997661525766 0.4151121561005554 0  0.05500233847423393 0.5848878438994446 0  0.0520912947951912 0.40625 0  0.59375 0.05063263303723638 0  0.6113142584645842 0.9411585052804305 0  0.402402637527157 0.05243074290023167 0  0.05237021982595785 0.7146869946988353 0  0.9514280734197595 0.53125 0  0.04857192658024048 0.46875 0  0.1138995451272664 0.2618291859344329 0  0.1276043399716366 0.06698080255494471 0  0.9496852823490703 0.5873315358652272 0  0.7164226875694513 0.8936714072472519 0  0.728445758907293 0.9483406189827143 0  0.05037626111865807 0.3500677784994627 0  0.9425695009311538 0.1320174568820216 0  0.4108317852857326 0.9488345682840208 0  0.5398628985995173 0.04893133705064829 0  0.46875 0.04573672429098317 0  0.4652931800096448 0.9529811055869081 0  0.53125 0.9542632757090168 0  0.8785971272885281 0.7441734326495726 0  0.8518416617605847 0.7931754903661554 0  0.04183404050302509 0.78125 0  0.7612395846848441 0.8595654412716175 0  0.2310588911243982 0.8579303197600836 0  0.04148050284378633 0.21875 0  0.9494864361787021 0.7612608042848362 0  0.9500000000000001 0.4721339993173143 0  0.04999999999999998 0.5278660006826856 0  0.8781553628189985 0.9246252444972441 0  0.8731991046476956 0.2435858407989878 0  0.09811738497342513 0.6912987895906199 0  0.78125 0.9600244726998853 0  0.09951704281279977 0.8094116423849811 0  0.1723930843372325 0.8914409560171174 0  0.21875 0.9592823984315264 0  0.8808053857873319 0.8333253975559158 0  0.8963977713581862 0.1485308906960134 0  0.9538351164349618 0.2296733193971382 0  0.9502525126806526 0.8180081280125184 0  0.2312490385075739 0.04727387874777968 0  0.2715914187620846 0.8835921407480765 0  0.8075381809024645 0.880775593205643 0  0.71875 0.03518728418751645 0  0.28125 0.03518728418751642 0  0.7646042202168328 0.04444036111707996 0  0.9023329991729737 0.03666350737326187 0  0.03401531498238862 0.15625 0  0.1188530488980251 0.1590855287670435 0  0.9585274478449393 0.2940602659505009 0  0.122777080947294 0.7293581095092172 0  0.9670375667902916 0.09375 0  0.2005134857209875 0.1810792546569654 0  0.04567406045797464 0.8878541658538743 0  0.09375 0.966869578205468 0  0.1562008719445321 0.03232788333739163 0  0.8953932105853648 0.3139420780646932 0  0.7990572522972532 0.1815363722387022 0  0.0968875242781685 0.03463409819727443 0  0.03223722036876893 0.09375 0  0.9004223587754672 0.9633108159792649 0  0.9677627796312311 0.90625 0  0.1015654613822437 0.1029847255361322 0  0.9612688796250578 0.9612688796250578 0  0 0.03125 0  0.03125 0 0  0.04144949962501476 0.9585505003749852 0  0.9558898336496962 0.04411016635030385 0  0.9068917513393455 0.6748714165270275 0  0.1368346895292699 0.830580202512584 0  0.1325215314767946 0.2232188145997174 0  0.07053058491102715 0.2523250971165124 0  0.28125 1 0  0.2618257196382527 0.9585732837283344 0  0.08628220552312613 0.8784418410901162 0  0.6885162251696433 0.09694521726220126 0  0.7451861497985837 0.1260293295250874 0  0.313422114933215 0.09491014745286984 0  0.2604190570795071 0.1249189143540631 0  0.9242490330121279 0.3761177923443456 0  0.8294827367589617 0.1534479284350518 0  0 0.28125 0  0.1085704015556412 0.3026527142683792 0  0.6454377779583714 0.9642341400769985 0  0.1735682150935896 0.1501527832362767 0  0.9118639212665761 0.2270478094042325 0  0.9675029085737417 0.7231519194735394 0  0.9540854621793986 0.6818714685662951 0  0.3411855214203015 0.9011195850022233 0  0.2203778463487443 0.08657146517086198 0  0.04103470738435357 0.04103470738435357 0  0.5692124642834736 0.9350661676969988 0  0.1143804055696223 0.9319617439078584 0  0.08871656954519293 0.3663659127109965 0  0.9630811790855398 0.168250321868886 0  0.8941478109554366 0.1077225817667272 0  0.7685953432959879 0.09339992494635127 0  0.9613334331586147 0.8673647296762501 0  0.84375 0 0  0.8276419188889859 0.03874003995670209 0  0.4987074584280061 0.9312004428379874 0  0.4999999999999999 0.07012294039149713 0  0.906353444207591 0.8962759602721756 0  0.8317000502825128 0.2255938539236174 0  0.060982293117454 0.1847248153131282 0  0.84375 1 0  0.8601163332513452 0.9625346208269469 0  0.07696867235812772 0.6190771663714262 0  0.03866375363197156 0.624370156890833 0  0.386395970129115 0.9182613855572013 0  0.59375 1 0  0.03763634871355165 0.2725691404761272 0  1 0.34375 0  0.9619513789393942 0.3638256452123659 0  0.1705891391383945 0.2215719862571997 0  0.2993345649440622 0.9643978827856838 0  0.2548390693531445 0.917543736811073 0  0.4376701674058487 0.06983678836603174 0  0.6249880952696493 0.07804203554412367 0  0.8891633930840495 0.7080603551933189 0  0 0.65625 0  0.8857454763750297 0.2783067670731572 0  1 0.65625 0  0 0.59375 0  0.9147359581367025 0.7498372322849914 0  0.34375 1 0  0.08128436453222096 0.3306040779845135 0  0.8370204413255111 0.08803482611562097 0  0.4399236117509409 0.9264634199869409 0  0.3763243110806382 0.08093997073896844 0  1 0.78125 0  0.3058827875685617 0.8943637152968825 0  0.891027260700638 0.1971556622156984 0  0.1814462944911871 0.9630031969500565 0  0.1812917788273262 0.1067749496803429 0  0.2291605611046911 0.1598957180171764 0  0.630525566101238 0.03837025329843378 0  0.03363261960646192 0.92260900189631 0  0.2960793559902691 0.1260912307633523 0  0.03663553287191564 0.8179172045954961 0  0.02996523389584273 0.8560987956667739 0  0.09880166525369549 0.8450583124835681 0  0.6923212173088138 0.150169004406393 0  0.502
[...]
<PointData  Vectors="u"> 
<DataArray  type="Float64"  Name="u"  NumberOfComponents="3" format="ascii">0.0000000000000000e+00 0.0000000000000000e+00 0.0000000000000000e+00  0.0000000000000000e+00 0.0000000000000000e+00 0.0000000000000000e+00  0.0000000000000000e+00 0.0000000000000000e+00 0.0000000000000000e+00  0.0000000000000000e+00 0.0000000000000000e+00 0.0000000000000000e+00  -1.7034624823109072e-02 -3.8203004595043812e-03 0.0000000000000000e+00  -1.6849257924106506e-02 -3.8464127574668782e-05 0.0000000000000000e+00  -1.6980182600766818e-02 3.8523455134297419e-03 0.0000000000000000e+00  -1.7205567865601675e-02 7.6885342363162395e-03 0.0000000000000000e+00  -1.7387073581418052e-02 1.1336123455763727e-02 0.0000000000000000e+00  -1.7601203447558576e-02 1.4403812912870084e-02 0.0000000000000000e+00  -1.7783314843373695e-02 1.6451508169986303e-02 0.0000000000000000e+00  -1.7718194714534865e-02 1.7525921116554852e-02 0.0000000000000000e+00  -1.7117668245049757e-02 1.7798212137749677e-02 0.0000000000000000e+00  -1.5577977931116586e-02 1.7702171119942378e-02 0.0000000000000000e+00  -1.3000255505617718e-02 1.7487003129784469e-02 0.0000000000000000e+00  -9.5924473022695068e-03 1.7288804160158790e-02 0.0000000000000000e+00  -5.8390140923668780e-03 1.7063012626402019e-02 0.0000000000000000e+00  -1.9645784727411403e-03 1.6943256321610652e-02 0.0000000000000000e+00  1.9452160182066203e-03 1.6918208141038331e-02 0.0000000000000000e+00  5.8112156061030365e-03 1.7060143511269159e-02 0.0000000000000000e+00  9.5795444882089808e-03 1.7286228740009478e-02 0.0000000000000000e+00  1.2968084570263744e-02 1.7520364651176557e-02 0.0000000000000000e+00  1.5577081648107390e-02 1.7694510393680397e-02 0.0000000000000000e+00  1.7130444948393813e-02 1.7781668992678908e-02 0.0000000000000000e+00  1.7714131227718380e-02 1.7520447609245912e-02 0.0000000000000000e+00  1.7750125514789043e-02 1.6482176089038163e-02 0.0000000000000000e+00  1.7617515730565067e-02 1.4425556508886885e-02 0.0000000000000000e+00  1.7417521584093171e-02 1.1382750000570664e-02 0.0000000000000000e+00  1.7180656279559420e-02 7.6698978634242316e-03 0.0000000000000000e+00  1.7002565982182870e-02 3.8581648531389569e-03 0.0000000000000000e+00  1.6872838080815845e-02 -5.9827745763159365e-05 0.0000000000000000e+00  1.6949914453646617e-02 -3.8672633850749777e-03 0.0000000000000000e+00  1.7192442130713879e-02 -7.6711168411941815e-03 0.0000000000000000e+00  1.7383073301777362e-02 -1.1361903759121430e-02 0.0000000000000000e+00  1.7590799444155730e-02 -1.4393758509401663e-02 0.0000000000000000e+00  1.7781161486653783e-02 -1.6445821087345096e-02 0.0000000000000000e+00  1.7657566375900328e-02 -1.7479528157505038e-02 0.0000000000000000e+00  1.7067557850952528e-02 -1.7784924129139915e-02 0.0000000000000000e+00  1.5604290459996163e-02 -1.7703212001774302e-02 0.0000000000000000e+00  1.2996976228484249e-02 -1.7482687592884048e-02 0.0000000000000000e+00  9.6017635468103098e-03 -1.7294523102085044e-02 0.0000000000000000e+00  5.8154445199360173e-03 -1.7106687706203157e-02 0.0000000000000000e+00  1.9270754308187545e-03 -1.6938076996843902e-02 0.0000000000000000e+00  -1.9846911313628505e-03 -1.6917867596084882e-02 0.0000000000000000e+00  -5.8132984916651753e-03 -1.7067320708260971e-02 0.0000000000000000e+00  -9.5521995096623912e-03 -1.7303420910485676e-02 0.0000000000000000e+00  -1.2968258072477553e-02 -1.7497760115465069e-02 0.0000000000000000e+00  -1.5600546266900741e-02 -1.7646526023314159e-02 0.0000000000000000e+00  -1.7076548271942514e-02 -1.7755201973994272e-02 0.0000000000000000e+00  -1.7727493740655208e-02 -1.7482979788549711e-02 0.0000000000000000e+00  -1.7727388532363296e-02 -1.6443113558287401e-02 0.0000000000000000e+00  -1.7577915886709500e-02 -1.4405632197181866e-02 0.0000000000000000e+00  -1.7380422205328143e-02 -1.1338859636433593e-02 0.0000000000000000e+00  -1.7186444675729686e-02 -7.6912896114359327e-03 0.0000000000000000e+00  0.0000000000000000e+00 0.0000000000000000e+00 0.0000000000000000e+00  0.0000000000000000e+00 0.0000000000000000e+00 0.0000000000000000e+00  0.0000000000000000e+00 0.0000000000000000e+00 0.0000000000000000e+00  0.0000000000000000e+00 0.0000000000000000e+00 0.0000000000000000e+00  0.0000000000000000e+00 0.0000000000000000e+00 0.0000000000000000e+00  0.0000000000000000e+00 0.0000000000000000e+00 0.0000000000000000e+00  0.0000000000000000e+00 0.0000000000000000e+00 0.0000000000000000e+00  0.0000000000000000e+00 0.0000000000000000e+00 0.0000000000000000e+00  0.0000000000000000e+00 0.0000000000000000e+00 0.0000000000000000e+00  0.0000000000000000e+00 0.0000000000000000e+00 0.0000000000000000e+00  0.0000000000000000e+00 0.0000000000000000e+00 0.0000000000000000e+00  0.0000000000000000e+00 0.0000000000000000e+00 0.0000000000000000e+00  0.0000000000000000e+00 0.0000000000000000e+00 0.0000000000000000e+00  0.0000000000000000e+00 0.0000000000000000e+00 0.0000000000000000e+00  0.0000000000000000e+00 0.0000000000000000e+00 0.0000000000000000e+00  0.0000000000000000e+00 0.0000000000000000e+00 0.0000000000000000e+00  0.0000000000000000e+00 0.0000000000000000e+00 0.0000000000000000e+00  0.0000000000000000e+00 0.0000000000000000e+00 0.0000000000000000e+00  0.0000000000000000e+00 0.0000000000000000e+00 0.0000000000000000e+00  0.0000000000000000e+00 0.0000000000000000e+00 0.0000000000000000e+00  0.0000000000000000e+00 0.0000000000000000e+00 0.0000000000000000e+00  0.0000000000000000e+00 0.0000000000000000e+00 0.0000000000000000e+00  0.0000000000000000e+00 0.0000000000000000e+00 0.0000000000000000e+00  0.0000000000000000e+00 0.0000000000000000e+00 0.0000000000000000e+00  0.0000000000000000e+00 0.0000000000000000e+00 0.0000000000000000e+00  0.0000000000000000e+00 0.0000000000000000e+00 0.0000000000000000e+00  0.0000000000000000e+00 0.0000000000000000e+00 0.0000000000000000e+00  0.0000000000000000e+00 0.0000000000000000e+00 0.0000000000000000e+00  8.3101146093123059e-03 8.2074962761595361e-03 0.0000000000000000e+00  -8.3132271788950007e-03 -8.2418862962482381e-03 0.0000000000000000e+00  -8.3029026846201791e-03 8.1987719213074909e-03 0.0000000000000000e+00  7.8354914016367863e-03 -7.8531138472554465e-03 0.0000000000000000e+00  -6.2591307378163739e-03 6.5550477523769936e-03 0.0000000000000000e+00  8.2625056121722398e-03 8.3369148200176362e-03 0.0000000000000000e+00  -8.2651387020906530e-03 -8.3057647679726457e-03 0.0000000000000000e+00  8.8434944335656993e-03 -8.5362236075582527e-03 0.0000000000000000e+00  8.4816795264385687e-03 -8.4790946300232518e-03 0.0000000000000000e+00  3.3115574573698266e-03 3.3137431847075280e-03 0.0000000000000000e+00  0.0000000000000000e+00 0.0000000000000000e+00 0.0000000000000000e+00  0.0000000000000000e+00 0.0000000000000000e+00 0.0000000000000000e+00  0.0000000000000000e+00 0.0000000000000000e+00 0.0000000000000000e+00  0.0000000000000000e+00 0.0000000000000000e+00 0.0000000000000000e+00  -3.3297537935887693e-03 -3.3095025490473651e-03 0.0000000000000000e+00  -7.9362869469139161e-03 8.6728538737217888e-03 0.0000000000000000e+00  7.9534430473402820e-03 8.6875307094942244e-03 0.0000000000000000e+00  -8.4281968323102700e-03 -8.5676643323770434e-03 0.0000000000000000e+00  0.0000000000000000e+00 0.0000000000000000e+00 0.0000000000000000e+00  0.0000000000000000e+00 0.0000000000000000e+00 0.0000000000000000e+00  7.8737216000311083e-03 6.6726500898270187e-03 0.0000000000000000e+00  0.0000000000000000e+00 0.0000000000000000e+00 0.0000000000000000e+00  0.0000000000000000e+00 0.0000000000000000e+00 0.0000000000000000e+00  0.0000000000000000e+00 0.0000000000000000e+00 0.0000000000000000e+00  -8.4339166210162658e-03 7.7490783027826136e-03 0.0000000000000000e+00  0.0000000000000000e+00 0.0000000000000000e+00 0.0000000000000000e+00  0.0000000000000000e+00 0.0000000000000000e+00 0.0000000000000000e+00  -3.7830481819734231e-03 3.7819730749890515e-03 0.0000000000000000e+00  -8.2868924085353624e-03 -7.3007361790709355e-03 0.0000000000000000e+00  0.0000000000000000e+00 0.0000000000000000e+00 0.0000000000000000e+00  3.5655820249705966e-03 -3.5694063906349461e-03 0.0000000000000000e+00  4.8291195106681273e-03 -5.2121028663005128e-03 0.0000000000000000e+00  -1.1716163200484209e-02 1.1601763182122344e-02 0.0000000000000000e+00  7.1534726484308395e-03 -8.3047597133731887e-03 0.0000000000000000e+00  -6.3671512621682530e-03 -8.5649374575367983e-03 0.0000000000000000e+00  -5.4631427962017155e-03 -5.7914217275565503e-03 0.0000000000000000e+00  5.4766861733942527e-03 5.7368448169000949e-03 0.0000000000000000e+00  0.0000000000000000e+00 0.0000000000000000e+00 0.0000000000000000e+00  7.8688200715880778e-03 -5.4581275136352768e-03 0.0000000000000000e+00  -8.0676785785179297e-03 5.9095663452982073e-03 0.0000000000000000e+00  1.2382226140427404e-02 -1.2470110895959239e-02 0.0000000000000000e+00  -5.5419233582158839e-03 7.7159389724870114e-03 0.0000000000000000e+00  0.0000000000000000e+00 0.0000000000000000e+00 0.0000000000000000e+00  5.4126516280882031e-03 7.8242223109758410e-03 0.0000000000000000e+00  1.1090546790011511e-02 1.1323713515993683e-02 0.0000000000000000e+00  -6.5533436887789745e-03 6.2736832040125989e-03 0.0000000000000000e+00  5.1864461593721664e-03 -4.8046592076286827e-03 0.0000000000000000e+00  0.0000000000000000e+00 0.0000000000000000e+00 0.0000000000000000e+00  0.0000000000000000e+00 0.0000000000000000e+00 0.0000000000000000e+00  0.0000000000000000e+00 0.0000000000000000e+00 0.0000000000000000e+00  0.0000000000000000e+00 0.0000000000000000e+00 0.0000000000000000e+00  5.9632127337483892e-03 5.6621528151688666e-03 0.0000000000000000e+00  -8.4715317350257356e-03 -5.4207694728974579e-03 0.0000000000000000e+00  -1.1597674034546581e-02 1.1780237637894091e-02 0.0000000000000000e+00  -5.4401066918328012e-03 -5.0687092957011097e-03 0.0000000000000000e+00  0.0000000000000000e+00 0.0000000000000000e+00 0.0000000000000000e+00  0.0000000000000000e+00 0.0000000000000000e+00 0.0000000000000000e+00  0.0000000000000000e+00 0.0000000000000000e+00 0.0000000000000000e+00  0.0000000000000000e+00 0.0000000000000000e+00 0.0000000000000000e+00  0.0000000000000000e+00 0.0000000000000000e+00 0.0000000000000000e+00  0.0000000000000000e+00 0.0000000000000000e+00 0.0000000000000000e+00  0.0000000000000000e+00 0.0000000000000000e+00 0.0000000000000000e+00  0.0000000000000000e+00 0.0000000000000000e+00 0.0000000000000000e+00  0.0000000000000000e+00 0.0000000000000000e+00 0.0000000000000000e+00  0.0000000000000000e+00 0.0000000000000000e+00 0.0000000000000000e+00  0.0000000000000000e+00 0.0000000000000000e+00 0.0000000000000000e+00  0.0000000000000000e+00 0.0000000000000000e+00 0.0000000000000000e+00  0.0000000000000000e+00 0.0000000000000000e+00 0.0000000000000000e+00  0.0000000000000000e+00 0.0000000000000000e+00 0.0000000000000000e+00  -1.2790469626607648e-02 -1.2853064595921887e-02 0.0000000000000000e+00  1.2105756717135893e-02 1.2020932237456042e-02 0.0000000000000000e+00  -4.6741367759159736e-03 4.2997115674404691e-03 0.0000000000000000e+00  1.2540217389513275e-02 -1.2294584580677803e-02 0.0000000000000000e+00  5.2464284607055718e-03 -7.9927920165042202e-03 0.0000000000000000e+00  -8.2228305516424266e-03 3.2726992284555822e-03 0.0000000000000000e+00  8.2434534812288497e-03 -3.2367254138499992e-03 0.0000000000000000e+00  7.6782619353349384e-03 3.3373897392579986e-03 0.0000000000000000e+00  -3.2159385970890395e-03 7.4523154976433529e-03 0.0000000000000000e+00  -4.3040218751591681e-03 -8.4191093059138144e-03 0.0000000000000000e+00  3.4580534636576908e-03 7.6874255277786224e-03 0.0000000000000000e+00  5.8762931759969422e-03 -5.2767738043145353e-03 0.0000000000000000e+00  -7.6785666382297758e-03 -1.1490350645715049e-03 0.0000000000000000e+00  7.6710437388059641e-03 1.1293640850875302e-03 0.0000000000000000e+00  1.1828087093392456e-02 1.0869407156895008e-02 0.0000000000000000e+00  4.8470104674105795e-03 4.5417694406297785e-03 0.0000000000000000e+00  -7.4833316399275070e-03 -3.0508765797317480e-03 0.0000000000000000e+00  -1.0289564216066785e-02 -1.1831684312535673e-02 0.0000000000000000e+00  -5.2393423831346769e-03 -5.6209607998896826e-03 0.0000000000000000e+00  6.6148018591397654e-03 4.4933320094520286e-03 0.0000000000000000e+00  -4.0328814737677285e-03 4.3966077698251518e-03 0.0000000000000000e+00  3.1392086719174888e-03 -7.5883970611712237e-03 0.0000000000000000e+00  -1.4361420196743265e-03 7.6965707065594349e-03 0.0000000000000000e+00  1.0526047732987516e-03 7.1931759261295164e-03 0.0000000000000000e+00  1.1894356324018930e-03 -7.4220923478544873e-03 0.0000000000000000e+00  -1.0407187661623934e-03 -7.2090518064003390e-03 0.0000000000000000e+00  -1.2340530937779004e-02 -1.1432668201668260e-02 0.0000000000000000e+00  -1.2575196414209438e-02 -1.2372160713945639e-02 0.0000000000000000e+00  3.9648539828618240e-03 -4.1753087205570194e-03 0.0000000000000000e+00  -1.2739777008743602e-02 -1.3395899310791763e-02 0.0000000000000000e+00  1.2655597699787071e-02 -1.3175747471820728e-02 0.0000000000000000e+00  3.9295986180167891e-03 4.1375305782694006e-03 0.0000000000000000e+00  -5.0231563038312015e-03 -5.0785024023846529e-03 0.0000000000000000e+00  -7.9304048767608638e-03 1.0158917468323216e-03 0.0000000000000000e+00  7.9512094637465870e-03 -1.0085271645172251e-03 0.0000000000000000e+00  -5.1790424880070410e-03 -4.9332680806893235e-03 0.0000000000000000e+00  -1.2388389254658320e-02 1.1703827829729875e-02 0.0000000000000000e+00  1.1724534738866759e-02 -9.4118456574880990e-03 0.0000000000000000e+00  -4.0145996600349189e-03 -3.7920262766791930e-03 0.0000000000000000e+00  8.3320620181144087e-03 -8.4911733911700905e-03 0.0000000000000000e+00  8.5902835688141266e-03 -8.4299691690638470e-03 0.0000000000000000e+00  4.0735348760265527e-03 -3.8614232646639749e-03 0.0000000000000000e+00  -8.9495521728769137e-03 -9.0536433841161435e-03 0.0000000000000000e+00  -7.3208307408349849e-03 7.5283130323498607e-03 0.0000000000000000e+00  -4.4872116097257444e-03 4.6208200939184974e-03 0.0000000000000000e+00  -4.2121742841483723e-03 -4.5763161244138746e-03 0.0000000000000000e+00  4.7376179620115160e-03 4.6061955305567691e-03 0.0000000000000000e+00  1.1182501664499685e-02 -1.2453687179882102e-02 0.0000000000000000e+00  -9.8890135021401440e-03 -9.8557526725232911e-03 0.0000000000000000e+00  -3.6182165658144084e-03 3.9062672759661975e-03 0.0000000000000000e+00  3.6241170340006357e-03 3.9036981464362361e-03 0.0000000000000000e+00  -4.4879923921025949e-03 4.3810654815931291e-03 0.0000000000000000e+00  -2.5263917264073481e-03 2.2495328771616318e-03 0.0000000000000000e+00  2.6911768511670396e-03 3.0364722191724577e-03 0.0000000000000000e+00  8.6463033746774394e-03 8.7876576833105687e-03 0.0000000000000000e+00  -4.7697681402615504e-03 4.1787347170664235e-03 0.0000000000000000e+00  1.3064165524694865e-02 -1.1738572135584402e-02 0.0000000000000000e+00  -1.9906619541891512e-03 2.2501636267234521e-03 0.0000000000000000e+00  1.4279326415440930e-02 1.4387798989676749e-02 0.0000000000000000e+00  2.9655832275465384e-03 -3.2868683381339406e-03 0.0000000000000000e+00  2.2457036250355935e-03 -1.9967671586508793e-03 0.0000000000000000e+00  2.8993997702877459e-03 2.5396120060341711e-03 0.0000000000000000e+00  -1.2649878155781710e-02 9.9485328599743794e-03 0.0000000000000000e+00  -1.4329801013607257e-02 1.4452681752564494e-02 0.0000000000000000e+00  2.3808051372366077e-03 2.1227869334618098e-03 0.0000000000000000e+00  1.9421327273713336e-03 2.1791218984408430e-03 0.0000000000000000e+00  -2.5364854487716169e-03 -2.2827557646326515e-03 0.0000000000000000e+00  -1.9193932271022404e-03 -2.1806994264105426e-03 0.0000000000000000e+00  5.6535071163962567e-03 5.6778639753849716e-03 0.0000000000000000e+00  -1.4094528431406338e-03 -1.4055396856422501e-03 0.0000000000000000e+00  0.0000000000000000e+00 0.0000000000000000e+00 0.0000000000000000e+00  0.0000000000000000e+00 0.0000000000000000e+00 0.0000000000000000e+00  1.5286572909212306e-03 -1.5252274843820983e-03 0.0000000000000000e+00  -1.6697051082309729e-03 1.6698883454723571e-03 0.0000000000000000e+00  -1.1622920403940052e-02 -8.7368202984727753e-03 0.0000000000000000e+00  1.0141542671483891e-02 -1.0188372075246992e-02 0.0000000000000000e+00  1.2058681336989497e-02 1.1673079501482182e-02 0.0000000000000000e+00  7.2430549187958247e-03 6.9502507156894563e-03 0.0000000000000000e+00  0.0000000000000000e+00 0.0000000000000000e+00 0.0000000000000000e+00  4.2637005305909362e-03 -4.3921334935279445e-03 0.0000000000000000e+00  5.5036937105528913e-03 -5.6680666062520896e-03 0.0000000000000000e+00  -9.2685212425194820e-03 1.1684443085556145e-02 0.0000000000000000e+00  -1.1845643946380107e-02 1.2766426979397222e-02 0.0000000000000000e+00  9.0645425318290930e-03 1.1480622652391132e-02 0.0000000000000000e+00  1.1801042627797680e-02 1.2857459452720613e-02 0.0000000000000000e+00  -1.0690603555956900e-02 5.9453756467583068e-03 0.0000000000000000e+00  -1.1141897942777194e-02 1.1159352508703837e-02 0.0000000000000000e+00  0.0000000000000000e+00 0.0000000000000000e+00 0.0000000000000000e+00  1.2731496055838277e-02 1.0400466072118005e-02 0.0000000000000000e+00  -3.1492384752342686e-03 -4.7220017571016635e-03 0.0000000000000000e+00  1.1104973070192930e-02 1.1117615148671919e-02 0.0000000000000000e+00  -8.3706992310077933e-03 8.2774086563741026e-03 0.0000000000000000e+00  -3.5678705154907680e-03 -3.3688036247487320e-03 0.0000000000000000e+00  -5.5754332628318321e-03 -4.4720133508463784e-03 0.0000000000000000e+00  8.9462705539077401e-03 -1.2917750972054467e-02 0.0000000000000000e+00  8.0433548350652782e-03 8.0522622943289737e-03 0.0000000000000000e+00  1.5193742115425860e-03 1.5093337523093442e-03 0.0000000000000000e+00  -3.2066191615127567e-03 -1.0052417831048988e-02 0.0000000000000000e+00  4.5753239109617826e-03 -4.3184920997845150e-03 0.0000000000000000e+00  1.2306054502817590e-02 7.2987820160543898e-03 0.0000000000000000e+00  -3.0088945085467293e-03 3.3436563844572872e-03 0.0000000000000000e+00  -6.0135206356324612e-03 6.0202133682963690e-03 0.0000000000000000e+00  -8.7641023619020597e-03 8.9802377353841792e-03 0.0000000000000000e+00  -2.7812769158923729e-03 -3.1302553435776041e-03 0.0000000000000000e+00  0.0000000000000000e+00 0.0000000000000000e+00 0.0000000000000000e+00  -3.5417181772779980e-03 3.1845615764251032e-03 0.0000000000000000e+00  4.7858707229284645e-05 -1.1205069330092424e-02 0.0000000000000000e+00  -2.0655254997027919e-05 1.1444389721907068e-02 0.0000000000000000e+00  -5.3169735502082375e-03 -5.3849895100631390e-03 0.0000000000000000e+00  -1.4917647684681217e-02 1.4460428950797667e-02 0.0000000000000000e+00  5.1690447935976644e-03 5.5176440805508840e-03 0.0000000000000000e+00  0.0000000000000000e+00 0.0000000000000000e+00 0.0000000000000000e+00  -3.1290189039926389e-03 -2.7737016018265161e-03 0.0000000000000000e+00  1.0983985871276837e-02 -5.8850066231156059e-03 0.0000000000000000e+00  5.3139154922405216e-03 -3.0724016559972316e-03 0.0000000000000000e+00  6.0671670060789898e-03 -1.1813448742094607e-02 0.0000000000000000e+00  0.0000000000000000e+00 0.0000000000000000e+00 0.0000000000000000e+00  4.0868057401573961e-03 3.8737594104419743e-03 0.0000000000000000e+00  0.0000000000000000e+00 0.0000000000000000e+00 0.0000000000000000e+00  -5.1150671507671714e-03 3.2355571001015547e-03 0.0000000000000000e+00  1.4885328652175287e-02 1.4503309414945013e-02 0.0000000000000000e+00  3.6082850629605883e-03 -4.1178187393316693e-03 0.0000000000000000e+00  8.0237103681378777e-03 -8.5189255310518935e-03 0.0000000000000000e+00  3.1297950036214793e-03 1.0973497140435886e-02 0.0000000000000000e+00  -6.1729504936241476e-03 1.1003345586769979e-02 0.0000000000000000e+00  -1.2572705386569755e-02 -1.0702286371242790e-02 0.0000000000000000e+00  0.0000000000000000e+00 0.0000000000000000e+00 0.0000000000000000e+00  -1.2439099459073779e-02 1.0987453934592498e-02 0.0000000000000000e+00  0.0000000000000000e+00 0.0000000000000000e+00 0.0000000000000000e+00  0.0000000000000000e+00 0.0000000000000000e+00 0.0000000000000000e+00  -8.6735865481842866e-03 