<?xml version="1.0"?>
<VTKFile type="UnstructuredGrid"  version="0.1"  >
<UnstructuredGrid>
<Piece  NumberOfPoints="12613" NumberOfCells="24648">
<Points>
<DataArray  type="Float64"  NumberOfComponents="3"  format="ascii">1.561014984255872e-19 10 0  0 0 0  10 9.866057415133459e-21 0  10 10 0  5.526657326842404 5.06926062010433 0  5.528992488003329 4.985740200936243 0  5.527982115856052 4.948366183808774 0  5.510025811191309 4.855441184213882 0  5.497914317424487 4.822227977219798 0  5.466087801698611 4.746515993458363 0  5.41894342426442 4.67649018409765 0  5.398441966169041 4.651443807108089 0  5.337440593439079 4.591850246429192 0  5.27413527405525 4.547950672907148 0  5.223337037136312 4.519845932744441 0  5.14552628058099 4.491302072240229 0  5.112124459261069 4.482575452775699 0  5.02032890301134 4.469869462026365 0  4.97848429339873 4.470951017281506 0  4.8892517792457 4.481394845458726 0  4.856069224116369 4.491399080478096 0  4.780607472365159 4.517423924661953 0  4.70517555514799 4.560669960767841 0  4.674888064766209 4.580812689979743 0  4.610078570989248 4.643839735984218 0  4.572607839496106 4.68739811530704 0  4.534981248585257 4.749364658196251 0  4.498386015173491 4.827140776503623 0  4.487734814162009 4.865929811609263 0  4.472441963775464 4.946271334902779 0  4.469689584341405 4.979795917177429 0  4.473704594563515 5.059752375308803 0  4.487131451398436 5.136689869233805 0  4.514556748197771 5.209252908190881 0  4.52800972362341 5.238503027275428 0  4.566888350398489 5.304388670891138 0  4.616463541479901 5.365125410173896 0  4.676589215029287 5.417408606150901 0  4.703009765179523 5.438985641405402 0  4.784819269619205 5.484091805124325 0  4.843410703661601 5.506467988414785 0  4.912930409720764 5.522433258528616 0  4.960037600351325 5.529225674787307 0  5.046736000189246 5.528328843401593 0  5.084003984892869 5.523049932360653 0  5.16346632778009 5.504553999680359 0  5.236098433370578 5.474493929229091 0  5.266990418585806 5.456325546797735 0  5.333424795059619 5.410773547911329 0  5.387892927027573 5.360088404027739 0  5.44071964057735 5.293704906447661 0  5.458376573956848 5.263081030272725 0  5.499871653711212 5.18138335872106 0  5.509395403806166 5.146983449943884 0  5 10 0  1.273030993798352e-18 5 0  10 5 0  5 2.558992756362097e-18 0  1.674949695877426e-18 2.5 0  2.5 2.347025269899518e-18 0  3.447225001718849e-18 7.5 0  10 7.5 0  7.5 10 0  10 2.5 0  7.5 1.853393335315362e-18 0  2.5 10 0  7.392213624486311 7.392155965867482 0  2.717627009809979 2.567772958497405 0  2.717320744347017 7.432714621295714 0  7.392174544337386 2.608006289049624 0  5.471982035735688 2.135812931623955 0  5.356974634434984 7.856071607009531 0  7.863885652874259 5.471574350668407 0  2.150983539206293 5.177539634932866 0  8.675482065910284 3.785223993632548 0  8.70468088665784 1.295355426480267 0  1.330365166932483 8.669693319368909 0  1.330465795733345 1.330482467655362 0  8.704739129282347 8.704755207882167 0  3.75 10 0  3.947026009858435 1.414597380458004 0  1.401601251126819 3.642998809461758 0  1.412387949475141e-18 6.25 0  7.13894788888508 4.26155437081208 0  1.540978919874389 6.538851578123932 0  6.25 10 0  4.19535099589288 2.948214370434244 0  8.68138328799267 6.715020165387416 0  6.715341816942257 1.318827828946718 0  6.607417376121008 8.563185011607645 0  4.168873183335125 7.100620772511395 0  2.964919041561014 4.035578985212491 0  4.19740671670967 8.594332299001934 0  6.145062685018355 3.255825776478299 0  6.11572459853712 6.785872980988285 0  3.138937404936873 6.071086093222909 0  2.381758537625738e-18 3.75 0  1.25 1.856732898236336e-18 0  1.114748321736517e-18 1.25 0  1.076323124362812e-18 8.75 0  3.75 2.108248762107709e-18 0  1.25 10 0  8.75 2.224463555553956e-18 0  10 3.75 0  10 1.25 0  10 6.25 0  10 8.75 0  8.75 10 0  6.25 2.288433098741955e-18 0  8.675054298815061 2.552652336406007 0  2.578119956416028 8.711759708471213 0  2.719446158796786 1.283577346133856 0  6.71934585515142 5.895151133532139 0  1.208559017511412 2.493853690681803 0  5.610763484030139 9.02656702062221 0  1.014865729939469 5.573726006392294 0  9.000428149811651 5.712385327553925 0  5.713185790024789 0.9996920524147828 0  1.135716788687878 7.583314058095343 0  7.644387037958364 8.900645005762316 0  5.108902759279426 3.226941519589233 0  5.062540384061492 6.757372749161122 0  0.9918889030091559 4.566920011876427 0  3.252073188787444 4.941096436805866 0  8.630782009098729 4.776681451013484 0  8.419192114733601 7.693211885539162 0  7.69331882349591 1.581196725775376 0  7.653260477400069 6.459601686102587 0  3.387735606998949 8.103338839721504 0  6.675483768625745 5.051686533732772 0  6.356748620633508 2.260425958723712 0  4.861824949592203 1.389376216239705 0  3.413463391686303 3.301770069682365 0  2.006553134276251 8.041807488184391 0  1.957910486794475 2.014135262327677 0  1.983589375973157 0.7293041739274837 0  1.906787085163452 9.342429779094031 0  9.338106078806007 1.912354277852141 0  9.353375689911735 8.103228558718307 0  8.103193456820351 0.646685643589448 0  8.013786521867299 3.20795606301672 0  9.336082404477221 3.140210510847358 0  9.349203779487807 9.349206279871657 0  10 0.625 0  9.375 5.725951177660171e-19 0  0.6838133368192645 9.316195999318298 0  0.6838236226442878 0.6838296322592484 0  0.6563872067941992 6.850637636692578 0  3.125 10 0  2.066372742349859 4.32080088759197 0  2.281611801850082 3.336556642121788 0  2.188878366487011e-18 3.125 0  3.311345317078811 1.973805693537245 0  4.375 1.063397162519605e-18 0  6.177217109979057 7.724280223006262 0  3.401527106096433 9.075313220134738 0  6.97329576086232 3.4491331396608 0  6.276792583237134 4.106560231266321 0  0.6506919638826987 1.825590171995908 0  9.336560791641661 4.29017628098206 0  3.364484071774819 0.7643334651473984 0  4.442128309367154 2.127747767698201 0  6.972311655076113 9.338313102575592 0  6.886781473189225 6.692813610718892 0  1.912045084999427 7.236283981881066 0  3.982593885780896 6.229565278445788 0  3.429549100728729 6.942900736050765 0  2.390153459771397 6.539014636275846 0  2.082817022771523e-18 8.125 0  3.858117522453063 4.058319729315184 0  4.813508274132774 9.146831141301396 0  9.202527848782283 7.332514105501788 0  7.36866721028032 0.8854859673714259 0  8.125 10 0  7.998147948440498 4.280066664376727 0  1.766703299599629 5.822610757101957 0  7.475480670733964 4.861587198934134 0  4.589246654209439 7.80955983983565 0  7.772439717373373 8.117038719442666 0  8.33076771523452 6.057675699472575 0  7.045737641119194 1.974856399629667 0  6.875 1.546570203779531e-18 0  4.608059201810963 3.647889786107332 0  6.884610486642233 7.882352108844238 0  0.7441186897785713 8.228636254526746 0  9.248897644477577 0.7510976877328235 0  4.07687656638832 0.6758896650479648 0  0.7965988525889492 3.123597664538192 0  8.277136489484533 9.282544057434031 0  4.585341645425256 6.326310285948487 0  6.275238561097438 9.258258676599253 0  6.002754428442848 6.00988545093565 0  5.523768675097126 6.332160520683143 0  3.65128582105068 5.464935661368917 0  8.070468460054505 7.059264989178569 0  8.03980517116471 2.210203184338101 0  4.041247829545302 9.32306952205249 0  6.076217368502054 1.610212094156907 0  2.829192936219052 5.495712781604641 0  5.94269743813433 8.397426571834373 0  6.350158749615619 0.7185722204418047 0  10 6.875 0  9.281392201362568 6.349525733897324 0  5.536175376449303 3.719044426466707 0  5.608531878224373 7.172228170280176 0  0.7272961240853929 3.915108042831178 0  1.906647130527573 2.71337838056006 0  0.7110480911176226 6.182092147450461 0  5.821241730586832 2.704265485291871 0  6.737624983419593 2.851863022196249 0  4.944389592655932 8.424931628637523 0  4.746706832000602 0.6693779655858335 0  9.309376851256681 4.93234872056837 0  7.6309218877419 3.770980615642574 0  3.131674999343354e-18 4.375 0  1.335107598133501 0.6596138201947958 0  3.57468368292565 2.65112676993022 0  3.997850627809131 7.966431688461516 0  2.090806426062384 1.381992334829461 0  6.875 10 0  10 4.375 0  1.786099059972799e-18 1.875 0  4.745182571065097e-18 6.875 0  0.625 7.626789203075099e-19 0  1.348202333004917e-18 0.625 0  0.625 10 0  10 3.125 0  8.125 1.202261502136034e-18 0  10 8.125 0  10 1.875 0  1.875 5.666132189555134e-19 0  5.625 -2.007692393513352e-19 0  10 5.625 0  2.774047930430251e-18 5.625 0  5.625 10 0  3.125 2.456858968578275e-18 0  1.875 10 0  10 9.375 0  9.375 10 0  6.743828191583264e-19 9.375 0  4.375 10 0  3.755357251124972 4.594411779408373 0  8.682705562728637 3.172125479668167 0  8.697731893344704 1.926097222561145 0  2.597075692236836 0.6432497534198667 0  2.58808212796628 1.91909387003761 0  1.63497497351246 4.778575014827751 0  2.833760146908947 9.412283255392847 0  2.58851366594439 4.727572745691825 0  1.955652263263325 8.705056524503728 0  2.631006312515447 8.069802032994282 0  9.365680573424331 8.725426266586748 0  6.628403699579852 7.2493546887047 0  9.360040045364958 2.526891513920536 0  4.060850869765607 3.549858953548008 0  4.956880002965921 2.523475825063282 0  1.294223524620303 9.375801314847195 0  6.521613275895245 4.558421355046331 0  7.252079549848676 8.4051631388076 0  6.222551169337936 5.41952831090649 0  7.162612757533069 5.492064370299808 0  3.632367877821705 7.503319134386111 0  3.88414662413002 2.031493632440995 0  1.408565205753185 3.060833237382881 0  1.246376967122917 1.911199342036019 0  0.600490991519973 2.410977766975513 0  9.387033588748476 3.714913470920236 0  9.292649890645102 1.333281044384793 0  3.29306834692499 1.36483842773257 0  8.672813256261195 0.7136401876157705 0  2.972563460247589 6.638871706737496 0  0.5870126939185605 1.251201617968693 0  2.391381725414797 5.953747964725495 0  0.6478489654116352 5.07799283070995 0  1.557099471614514 5.320141002980063 0  5.265699734254821 9.482410992179174 0  2.881524396790219 3.474872270383484 0  1.375378740075654 7.070928295856692 0  0.5843374968558518 7.412097624916792 0  1.305434224490108 8.108951161863546 0  5.318555671131327 0.5415418813051871 0  0.5702107860628011 8.7682795522930
[...]
<CellData  Scalars="dens"> 
<DataArray  type="Float64"  Name="dens"  format="ascii">1.0769586777998552e+00   9.7702214629218664e-01   1.1008305021195357e+00   9.6093987401409242e-01   3.1117814460411557e+00   1.0801845997442849e+00   1.0084195660609820e+00   1.0740817797684317e+00   1.3499549693941943e+00   1.0729462343530123e+00   9.5057104291801142e-01   9.5948492824155129e-01   9.7019393666450071e-01   9.5823984600944723e-01   9.5826325868612550e-01   2.8803117353321044e+00   9.6045609685772759e-01   1.0029563239757240e+00   1.0796020146194769e+00   3.1427923642269850e+00   2.4005457960056704e+00   9.5541573566600391e-01   1.0709945524802265e+00   9.7309103966261845e-01   1.1347392145578774e+00   1.3548206912561991e+00   1.1057046993609905e+00   1.0670524262222050e+00   9.6026073422667257e-01   1.0589380591869431e+00   1.0478851815191585e+00   9.6033224690401475e-01   2.7927252693810174e+00   1.0444101870327636e+00   9.6032666019358204e-01   1.0956708522612544e+00   9.6434856116874590e-01   1.1030612385342944e+00   1.1141896497117971e+00   1.1233891161596687e+00   1.0092448161337446e+00   1.0284209483728597e+00   1.0168322233873377e+00   9.5992947526455707e-01   1.0947461338525641e+00   1.0966921645743724e+00   1.1548111160024168e+00   9.6335286467829717e-01   1.0927248944750410e+00   9.5868561378650019e-01   9.7542173556329981e-01   9.8913914151338644e-01   1.0562914952008939e+00   9.6074913935135786e-01   1.2062932355582803e+00   9.8651191620563639e-01   1.0550595431075129e+00   1.1066141445052229e+00   9.5573169450126905e-01   9.6444465494470821e-01   9.7087783847548881e-01   1.1302030141107795e+00   1.0708286828058791e+00   1.1060168999343398e+00   1.0970873908819243e+00   1.0720825504814298e+00   1.1128633258841183e+00   9.6435571277894416e-01   9.6610490874155275e-01   1.0403173781891950e+00   9.8149062396157527e-01   9.8362738398732519e-01   9.9361034283786720e-01   1.0535600241212122e+00   9.6799227301506374e-01   9.5416706825202213e-01   9.6909408412713094e-01   9.5784539522556500e-01   9.5845397929613962e-01   9.5982864340555829e-01   1.0787393026847272e+00   1.0675465981999233e+00   9.5892247869551006e-01   9.6290742000961438e-01   9.6107927745672661e-01   1.0685712362731659e+00   1.1093618931751057e+00   9.6032750174140169e-01   9.5132106458057819e-01   9.6078082151957200e-01   9.6307938477548571e-01   9.5663810918432945e-01   9.8386529320036575e-01   1.0463044939499844e+00   1.0929528181708534e+00   1.0183038380410705e+00   1.2558692522362627e+00   9.4944573280611932e-01   1.0945060620031279e+00   9.8118334808273777e-01   9.7493898109398869e-01   9.9220465946208358e-01   9.5885155056060456e-01   9.7992981824415637e-01   9.4913285834582528e-01   9.6054249054086049e-01   9.5960210174743998e-01   9.6055710336352629e-01   9.5461093234501149e-01   9.6615146456292567e-01   9.7330541406565318e-01   9.6114030038193232e-01   9.5975634947086419e-01   9.7252169919507669e-01   9.5716274494584552e-01   9.5672293431194355e-01   9.5603447034292532e-01   9.6342991140320022e-01   9.6514241793677247e-01   9.6053224256449610e-01   9.9259805827067549e-01   9.9323516690020841e-01   9.6010935110875917e-01   9.6205171924118316e-01   9.6439745178733771e-01   9.5913029197627753e-01   9.7004544246450952e-01   9.8961899455674895e-01   9.6434370689037907e-01   9.5092774020484905e-01   9.5190134684455918e-01   9.6141071438651371e-01   1.0453067454803755e+00   1.0893720147078414e+00   1.0883198359363435e+00   9.9413481384673785e-01   9.5977159616118635e-01   9.8386123497472777e-01   1.0113763849331960e+00   9.6690484010340449e-01   9.7210445709243998e-01   9.6218343817146412e-01   9.5870167689350883e-01   9.5917667333774026e-01   9.5832010980642934e-01   9.6245662145349642e-01   9.7706222359126593e-01   9.9388249988377653e-01   9.6736339301875562e-01   1.0801083067046626e+00   1.3619449797086913e+00   9.5897361688202043e-01   9.6371893002766884e-01   9.6234446259309026e-01   9.5862652192377273e-01   9.6234639839750347e-01   9.7597037296271005e-01   9.5980732686971859e-01   9.6552316068646493e-01   9.6054731555013118e-01   9.6025592898823631e-01   9.6453172347879168e-01   9.6095283767485251e-01   9.7182338547654823e-01   9.6027424465040290e-01   9.6311420411855286e-01   9.6073885064116504e-01   9.6383274817551079e-01   9.5859437826797278e-01   9.5826292690302406e-01   9.5903954709151573e-01   9.6599768111070905e-01   9.8020714295386180e-01   9.7161698526855877e-01   9.7123168395124593e-01   9.7142707528778338e-01   9.6562878377848149e-01   9.6760443846340205e-01   9.5748851973536631e-01   9.5779504946258254e-01   9.5014173723945461e-01   9.5972794535085471e-01   9.5775460710545834e-01   9.6224833452889236e-01   9.6018201614068721e-01   9.6360351093880026e-01   9.6220262045058624e-01   9.5067652785131684e-01   9.5204114329647604e-01   9.6348336241422405e-01   9.6654622911585497e-01   9.6097800289307134e-01   9.5604791015245849e-01   9.7212890578949052e-01   9.7769592766358360e-01   1.0708030387151888e+00   1.0673053011714597e+00   9.6314117318682246e-01   9.6622989813011650e-01   9.5423228937986959e-01   9.5979848009472624e-01   9.7555559450098128e-01   9.5763480829352976e-01   9.7213061672612378e-01   9.6160762585016446e-01   9.6966317230350441e-01   9.6621789115081758e-01   9.9293101115267368e-01   1.0494733712566400e+00   9.7475308336877020e-01   9.5941203955940946e-01   9.7784911649046768e-01   9.7470516349648895e-01   9.6814478983454388e-01   9.9506567720238626e-01   1.0020822277719348e+00   9.5411077998009741e-01   9.5652427938020479e-01   9.5419196702730780e-01   9.6919960563515939e-01   9.6595882822582491e-01   9.6044567269267944e-01   9.6088001631204867e-01   9.6869238846180294e-01   9.6924970786614806e-01   9.6344368418566473e-01   9.9346344781567064e-01   9.8503652832121258e-01   9.6946487685407101e-01   9.6067574476190265e-01   9.6605022709389865e-01   9.5947597930036754e-01   9.7170765476237120e-01   9.5988537470153379e-01   9.6025387690855835e-01   9.5410585598791797e-01   1.1115916519982896e+00   1.0604340379841191e+00   9.5956352575931081e-01   9.5970246473715937e-01   9.6079279848502563e-01   9.6658892596577239e-01   9.6506462094890011e-01   9.6765913763508826e-01   9.5369981350704591e-01   9.4771222313200809e-01   9.5944455494377023e-01   9.5952564541061136e-01   9.6703327794388050e-01   9.6081813356659529e-01   1.1060005911883770e+00   1.0260666996421735e+00   9.5763264286718930e-01   1.4654061113193417e+00   1.0928805826751304e+00   1.0727241155307397e+00   1.1270934701528335e+00   9.9859535509767661e-01   9.8925756048777014e-01   9.5975805334837050e-01   9.6087047426349703e-01   9.5860377142712727e-01   9.5897347315931791e-01   9.5486872314719740e-01   9.5616350042812981e-01   9.5265180774628533e-01   9.5396262920539121e-01   9.7762305496826440e-01   9.7139121535978368e-01   9.5673589443244911e-01   9.5995442961036503e-01   9.5801926698994044e-01   9.5403452208905859e-01   9.5410994441547881e-01   9.5488840732099534e-01   9.5618738475736642e-01   1.0652519364008881e+00   1.0786308468699850e+00   9.7857423475507133e-01   9.7694172337834295e-01   9.5586047990060874e-01   9.5672814981898235e-01   9.5939673879589737e-01   9.6187327874852180e-01   9.6086449691324716e-01   1.0241854353261233e+00   9.6542778023728060e-01   9.6803368883494734e-01   9.8378337944647964e-01   9.5867808516731590e-01   9.5369892870342465e-01   9.5444023207449491e-01   9.5303625886684307e-01   9.7276627668079740e-01   9.7578749755800775e-01   9.5139133030789769e-01   9.6519369791579579e-01   9.6891643752203271e-01   9.8700053916465647e-01   9.5702053682206545e-01   9.6003411739399580e-01   9.6033123636754647e-01   9.6226765975655881e-01   9.5326396157709004e-01   9.5811389087392362e-01   9.6328133186430576e-01   9.5999069832882178e-01   9.7453301818410942e-01   9.7239352157902392e-01   9.7428137584850383e-01   9.5264822012991301e-01   9.5845220316525304e-01   9.6591750400496068e-01   9.6742874639640442e-01   9.6194540627198466e-01   9.6069190750206335e-01   9.6906497800407410e-01   9.6431095489913243e-01   9.5138661910516031e-01   9.5247616839304605e-01   9.5377298542026678e-01   9.4873801479220632e-01   9.5166894044082162e-01   9.6977600131272401e-01   9.6147646552184340e-01   9.7416276279529135e-01   9.7026075044363158e-01   9.5379042316426321e-01   1.0235041364418029e+00   1.0189529043155805e+00   9.5830752573764699e-01   9.6058466327058867e-01   9.6028649767115881e-01   9.6206733768105557e-01   9.5633857218057550e-01   9.5924630000703903e-01   9.6220812650172116e-01   9.6250121117113008e-01   9.5927140123638210e-01   9.6485845204277665e-01   9.5837101320828622e-01   9.5940932894210296e-01   9.9190040397686696e-01   9.7986344044493545e-01   9.6096372451235790e-01   9.5856284720133511e-01   9.6120852017112701e-01   9.6067435919543320e-01   9.6943439275533416e-01   9.8228855515599767e-01   9.7869053054868227e-01   9.5896323580990306e-01   9.8038482357530510e-01   1.0332178918750594e+00   9.7711311221793684e-01   9.7622370249544965e-01   9.6403753241313028e-01   1.0010481955752053e+00   1.0132370764151903e+00   9.5834207244808411e-01   9.5871404468074395e-01   1.0439268261614014e+00   1.1226619317472475e+00   9.9302923196310522e-01   9.8438035287359227e-01   9.6356815971317844e-01   9.6470585104754158e-01   9.6233468596436134e-01   9.6442207201489305e-01   9.5605921734428945e-01   9.5950761624958236e-01   9.6044475226290826e-01   9.6153121550881993e-01   9.6029816614481345e-01   9.5262357743459825e-01   9.6298399202751783e-01   9.6804191797360017e-01   9.6010588773715355e-01   9.5967878418148267e-01   9.6488183499148206e-01   9.6339038063772009e-01   9.7994005144538121e-01   9.6588152425750229e-01   9.6968721049459750e-01   9.6229707080325377e-01   9.5922289814264816e-01   9.5159794470820813e-01   9.6815519560056429e-01   9.5985715656847514e-01   9.5542207736043416e-01   9.7682670130590488e-01   1.0101412184718013e+00   9.6016065750287771e-01   9.5785744917138815e-01   9.6288423144669710e-01   9.6577999680716453e-01   9.6091517859732001e-01   9.5287485304105046e-01   9.5650139644927046e-01   9.7021199247773915e-01   9.5862855489654619e-01   9.6131510856454738e-01   9.6433785010428885e-01   9.6115621479543978e-01   9.6276144140542541e-01   9.6755248649541625e-01   9.6611265957140902e-01   9.6221121562325296e-01   9.5870995775708701e-01   9.6165638185469393e-01   9.9192173559869024e-01   9.8046518946748773e-01   9.7496063526332866e-01   9.7068100606645535e-01   9.6111413998779527e-01   9.6307583372631589e-01   9.6158120203484632e-01   9.6338005717202269e-01   9.5863335079111534e-01   9.5947391904687718e-01   9.5414912007481389e-01   1.0804515494048008e+00   1.0730927634416896e+00   1.0256813149048862e+00   9.8761578880235312e-01   9.7035894198461903e-01   9.6310227885921285e-01   9.6115845239870468e-01   9.7250857600757701e-01   9.6391488322019736e-01   9.5610067128802578e-01   9.5506721614079626e-01   9.5984427116712479e-01   1.0712355286408117e+00   1.0875175928961658e+00   9.5825862629742575e-01   9.5846443417243832e-01   9.6514316747051265e-01   9.7544229597542442e-01   9.6096701336724455e-01   9.6044046189848398e-01   9.6106792960245535e-01   9.5706226867827382e-01   9.6001478274633179e-01   9.5993475927876926e-01   9.6154822327547917e-01   9.6528742287789571e-01   9.6367971016591314e-01   9.6202413269572873e-01   9.5879997689031859e-01   9.5851066985677280e-01   9.5555685489784403e-01   9.5988426169181029e-01   9.5408521053034567e-01   9.5526831346361074e-01   3.1328195703603483e+00   1.0233985094500009e+00   9.8994245653278468e-01   9.8221524793772275e-01   9.9120145468166554e-01   9.8598551607825591e-01   9.5315397916400757e-01   9.4872923234125273e-01   9.5272405303539198e-01   9.4933682033491107e-01   9.4914283682948630e-01   1.1346177295476916e+00   1.1381069969607731e+00   9.6075676197463833e-01   9.5833520196986821e-01   9.5623784097875342e-01   9.7110438622004547e-01   9.8873164759769483e-01   9.5777008345343273e-01   9.5808583138485637e-01   9.5935408801467448e-01   9.5997577722419136e-01   9.6221224672626116e-01   9.6764899645798463e-01   9.6041054676558713e-01   9.6324675901376300e-01   9.7371252539842479e-01   9.6227597187775271e-01   9.9312144059004714e-01   9.9263027222997025e-01   9.6815793601150490e-01   9.9523063306300896e-01   1.0761082630795928e+00   1.0397503637116550e+00   9.6052644748473281e-01   9.6818322672082890e-01   9.6318715061557625e-01   9.5881269060460961e-01   1.2026223150196389e+00   1.0882060907328142e+00   9.6387421369680693e-01   9.6446020374526775e-01   9.6001766343259420e-01   9.5819532462129453e-01   9.5790663775541451e-01   9.5797847228366784e-01   9.5831563980450540e-01   9.5907187181433384e-01   9.6112623396397678e-01   9.6035188121007242e-01   9.5071851575730004e-01   9.5811089877855893e-01   9.5479388422504596e-01   9.6063184916495148e-01   9.6260869162982743e-01   9.7950105940487953e-01   9.9596764579787755e-01   9.5345918192532642e-01   9.6028535896517198e-01   9.6394960915199535e-01   9.5869204854836509e-01   9.6289035731543726e-01   9.5096336150524563e-01   9.5319117325936653e-01   9.5869043395950748e-01   9.5362398080558419e-01   9.7535736375217152e-01   9.9039933662764212e-01   9.6388139371548243e-01   9.6366710481973028e-01   9.6175111171091998e-01   9.6085633897546840e-01   9.7159045992830806e-01   9.7905946731840754e-01   9.5412373362053415e-01   9.5407737424195471e-01   9.5603020054491983e-01   9.5876868054055919e-01   9.6460008627721228e-01   9.6477411932628632e-01   9.9395145756084280e-01   9.8143304557134126e-01   1.0228964099304767e+00   9.9344551569043116e-01   9.6204594182298664e-01   9.5409731863262570e-01   9.5817398130104836e-01   9.7381503277571568e-01   9.7772017157431645e-01   1.0631056442545146e+00   1.1014651358484118e+00   1.0090094508904839e+00   1.0753244381041169e+00   1.2732676686190212e+00   1.1064843833469504e+00   9.7249055520808259e-01   9.8439560092814604e-01   9.5674615119584228e-01   9.5748044243469688e-01   9.5544081503452516e-01   9.5567387880723964e-01   9.5585841702172714e-01   9.7862271785991883e-01   9.7121623031397775e-01   9.6081800619991031e-01   9.5870032278508777e-01   9.5740745872561128e-01   9.7510935739866156e-01   9.7226784530244470e-01   9.5955736591199681e-01   9.5881549104067243e-01   9.7362444261464443e-01   1.0026272386498569e+00   9.6360653085887626e-01   9.6108515175143738e-01   9.6567560829997989e-01   9.5961078592677951e-01   9.5953300665456265e-01   9.5902486520486385e-01   9.6030207956686042e-01   9.7075988343273290e-01   9.6290357084239109e-01   9.6513882552479391e-01   9.6076942611794680e-01   9.6082866061192918e-01   9.5790479464256406e-01   9.6396433159552830e-01   9.6148519177268676e-01   9.5973869391628286e-01   9.6660558740876390e-01   9.7617620654615067e-01   9.6587507590681443e-01   9.7464424118516002e-01   9.7201707839952045e-01   9.6988144823536715e-01   9.6669217577834554e-01   9.6535368373451447e-01   9.6870387716210249e-01   9.8724898200771671e-01   9.6349877147036023e-01   9.7051920422213689e-01   1.0785246724616517e+00   1.0018994483851296e+00   9.5883993283140545e-01   9.6049106615222624e-01   9.6152570615229949e-01   9.6063575495525455e-01   9.6099818226646605e-01   9.6026082545337432e-01   9.6499077312352577e-01   9.6468053524662789e-01   9.6084722539099654e-01   9.6051819937512994e-01   9.6797794127258119e-01   9.6807856674893866e-01   9.6130079040502758e-01   9.6164101504881716e-01   9.6157710669781737e-01   9.6305175020983025e-01   9.6676103586723738e-01   9.6003954854370321e-01   9.5946763363481002e-01   9.6670121049662772e-01   9.5785678511200900e-01   9.5864962696918421e-01   9.5841750506496237e-01   9.5675093333338412e-01   9.5881483241698040e-01   9.6467531480264768e-01   9.7526387881506726e-01   9.8011660273191958e-01   9.7415754444521951e-01   9.7849889033824711e-01   9.7077146086134958e-01   9.5639443318388218e-01   9.5685661833395275e-01   9.5262802256511547e-01   9.5551382203416735e-01   9.7681919211489632e-01   9.6334343007661793e-01   9.5165182439380869e-01   9.5669756984019905e-01   9.6497158314285303e-01   9.5996985002941648e-01   9.6471653634531884e-01   9.7312075152240607e-01   9.7198251249391487e-01   9.6177591807964513e-01   9.6992811073363028e-01   9.6549675459343887e-01   9.5861836935348055e-01   9.9939033293281754e-01   9.7317423419556570e-01   9.7232542735897287e-01   9.6535923843887017e-01   9.6471724904808165e-01   9.6629490016277719e-01   9.5526770411359896e-01   9.5829384937985085e-01   9.5703132770727684e-01   9.6179594864101081e-01   9.5952567656895416e-01   1.3838943482169239e+00   1.1163323623798147e+00   9.5951800441076218e-01   9.6311774245828452e-01   9.5021181242134389e-01   9.5529524535240917e-01   9.6344901083770773e-01   9.7255707302894301e-01   9.6445366660734388e-01   9.6388524604631476e-01   9.6021656447695503e-01   9.6000060353597039e-01   9.5097869773127119e-01   9.5301071145268357e-01   9.6624805662223345e-01   9.5257099305782911e-01   9.5046556861766285e-01   9.6633198149692801e-01   9.5718759594066305e-01   9.6563763156299376e-01   9.6842542014162114e-01   9.6707340353116045e-01   9.6247490644402256e-01   9.6143059832983169e-01   9.7701430155255620e-01   1.0056004102668967e+00   1.0167150478030056e+00   9.5743506101032405e-01   9.5882344710087364e-01   9.5740669731221906e-01   9.5546158136697190e-01   9.5572435813448686e-01   1.3995831045416676e+00   1.1500416860942901e+00   9.6969596936301861e-01   9.6751640125220306e-01   9.5388466198819877e-01   9.5512302312307162e-01   9.8955342889645059e-01   9.7181422384823912e-01   9.6705014362146535e-01   9.7474006712864170e-01   9.5262316623986654e-01   9.5408808693631342e-01   9.6401286609081160e-01   9.6210731262741578e-01   9.5175997924498079e-01   9.4772661386202128e-01   9.5517717857813200e-01   9.5614411707625324e-01   9.5379990346831256e-01   9.5431644533574467e-01   9.7167780834286555e-01   9.8060167947800858e-01   9.7230045232658080e-01   9.6679130355921350e-01   9.4792494357528345e-01   9.4497475416166654e-01   9.5813468281810377e-01   9.5919028654132032e-01   9.5265404145281751e-01   9.5486547140540512e-01   9.5463054404974435e-01   9.5867107777485361e-01   9.5958367373069497e-01   9.6218644721162916e-01   9.5896045805151020e-01   9.8293347730343572e-01   9.6648434090352719e-01   9.7503773666460181e-01   9.7815429561366640e-01   9.6063049594773953e-01   9.6402475983694225e-01   9.6460772499302239e-01   9.6691579309474973e-01   9.5853018617486929e-01   9.5350752160260743e-01   9.6008903079384367e-01   9.5548497433749968e-01   9.5867931095833847e-01   9.5893496402918232e-01   9.6448766563495680e-01   9.6190989097853252e-01   9.7460525117030838e-01   1.0162558577643337e+00   9.8094394806000029e-01   1.0218285779810288e+00   9.7143415567991265e-01   9.6278972711331345e-01   9.5653457999760549e-01   9.5585488208769243e-01   9.6068711125536965e-01   9.5865559654629762e-01   9.6351665083273719e-01   9.6313076464277902e-01   9.5986005914176853e-01   9.6478942504861487e-01   9.7316512729812799e-01   9.8864410828352389e-01   9.4986504485094292e-01   9.4880675988321539e-01   9.8264037664793380e-01   1.0009625545607643e+00   1.0824187152586571e+00   1.0988444486816706e+00   9.5151187695798156e-01   9.5040561960835601e-01   9.8004412803443908e-01   9.8434544882096164e-01   9.5372751664718780e-01   9.6198808320995743e-01   9.6596111327003908e-01   9.5704639367703015e-01   9.5510421798768119e-01   9.5807247708376808e-01   9.5741917797774656e-01   9.6258614213908222e-01   9.6060537899150755e-01   9.6013010521524156e-01   9.6059737303228798e-01   9.6022167527240143e-01   9.7018427751851100e-01   9.6669161011207971e-01   9.6410497128764450e-01   9.6443691005593202e-01   1.0771515846683852e+00   1.0960519364143635e+00   9.7585386036672794e-01   9.7606561722176000e-01   9.5362351644075882e-01   9.5696322310270943e-01   9.5530432097186446e-01   9.5194702175766699e-01   1.0214650902283910e+00   1.0403457593396572e+00   9.5941675645819813e-01   9.6779605800904123e-01   9.6846729906298501e-01   9.7348008990887691e-01   9.53961127732764