<?xml version="1.0"?>
<VTKFile type="UnstructuredGrid"  version="0.1"  >
<UnstructuredGrid>
<Piece  NumberOfPoints="12613" NumberOfCells="24648">
<Points>
<DataArray  type="Float64"  NumberOfComponents="3"  format="ascii">0 10 0  0 0 0  10 0 0  10 10 0  5.992114701314478 5.125333233564304 0  6 5 0  5.992114701314478 4.874666766435696 0  5.968583161128631 4.751310112835145 0  5.929776485888252 4.631875447315323 0  5.876306680043863 4.518246325898284 0  5.809016994374947 4.412214747707527 0  5.728968627421411 4.315452894071311 0  5.637423989748689 4.22948675722421 0  5.535826794978997 4.155672074497985 0  5.425779291565072 4.09517294753398 0  5.309016994374947 4.048943483704846 0  5.187381314585724 4.017712749271311 0  5.062790519529313 4.001973271571728 0  4.937209480470687 4.001973271571728 0  4.812618685414275 4.017712749271311 0  4.690983005625053 4.048943483704846 0  4.574220708434928 4.09517294753398 0  4.464173205021003 4.155672074497985 0  4.362576010251311 4.229486757224211 0  4.271031372578588 4.315452894071312 0  4.190983005625053 4.412214747707528 0  4.123693319956137 4.518246325898285 0  4.070223514111748 4.631875447315322 0  4.031416838871369 4.751310112835146 0  4.007885298685522 4.874666766435696 0  4 5 0  4.007885298685522 5.125333233564304 0  4.031416838871369 5.248689887164855 0  4.070223514111749 5.368124552684678 0  4.123693319956137 5.481753674101715 0  4.190983005625053 5.587785252292473 0  4.271031372578589 5.684547105928689 0  4.36257601025131 5.770513242775789 0  4.464173205021003 5.844327925502015 0  4.574220708434927 5.904827052466019 0  4.690983005625053 5.951056516295154 0  4.812618685414275 5.982287250728689 0  4.937209480470687 5.998026728428272 0  5.062790519529313 5.998026728428272 0  5.187381314585725 5.982287250728689 0  5.309016994374947 5.951056516295154 0  5.425779291565073 5.90482705246602 0  5.535826794978997 5.844327925502015 0  5.63742398974869 5.770513242775789 0  5.728968627421412 5.684547105928688 0  5.809016994374947 5.587785252292473 0  5.876306680043863 5.481753674101715 0  5.929776485888252 5.368124552684678 0  5.968583161128631 5.248689887164855 0  5 10 0  0 5 0  10 5 0  5 0 0  0 2.5 0  2.5 0 0  0 7.5 0  10 7.5 0  7.5 10 0  10 2.5 0  7.5 0 0  2.5 10 0  7.485014227815469 7.485014227815468 0  2.624291547813317 2.470127454275751 0  2.624291547813306 7.529872545724244 0  7.485014227815469 2.514985772184531 0  5.501322239123305 1.989844925476205 0  5.379553576772174 8.004475929833614 0  8.009762413667167 5.50092484241762 0  2 5.188744001760954 0  8.749910705909175 3.75 0  8.735102992990898 1.264897007009102 0  1.298640613344511 8.70135938665549 0  1.298640613344514 1.298640613344514 0  8.735102992990898 8.735102992990898 0  3.75 10 0  3.912893232829084 1.33196018051077 0  1.32486817239184 3.602721496273811 0  0 6.25 0  7.33800602899442 4.185061400278719 0  1.46012754946627 6.586509713609103 0  6.25 10 0  4.107618314163975 2.746101144635254 0  8.746887821637173 6.757315261531288 0  6.757712161714717 1.253114543328782 0  6.652390351926942 8.636871422196799 0  4.082811893307114 7.297579393422678 0  2.77185775043354 3.935002032188672 0  4.170229426070917 8.680048884324506 0  6.279207553947785 3.060640586921346 0  6.243921113202843 6.981280825327044 0  2.943794974478871 6.190871022350711 0  0 3.75 0  1.25 0 0  0 1.25 0  0 8.75 0  3.75 0 0  1.25 10 0  8.75 0 0  10 3.75 0  10 1.25 0  10 6.25 0  10 8.75 0  8.75 10 0  6.25 0 0  8.727654225028649 2.507537004222282 0  2.534024448053167 8.763521267692715 0  2.675330070144278 1.229368534631439 0  6.938317963016699 6.016222388396734 0  1.160966450995929 2.452397487456289 0  5.625 9.085018488154775 0  0.9534467980924162 5.587666637777538 0  9.059920331215721 5.729227516799859 0  5.729968520679604 0.9401057243527156 0  1.092141083367926 7.622001080218721 0  7.681674540101278 8.941941402997672 0  5.126847797924912 2.962082287113166 0  5.072611876314043 7.02470488787669 0  0.9313086115777203 4.556301549197934 0  2.984525138894107 4.930394751680348 0  8.718829002404984 4.768760792108237 0  8.475490130958471 7.744627089847896 0  7.744824371465027 1.524707150658661 0  7.780225167097711 6.538995998896642 0  3.32557460434723 8.201312828626905 0  6.953994462708644 5.060443590815006 0  6.429686829531911 2.133376767868373 0  4.85671980606795 1.299671875972767 0  3.266001241014683 3.14535385856259 0  1.948129212827459 8.100524007339061 0  1.898758825823051 1.95534337194406 0  1.958825626380582 0.7043680802078647 0  1.884535848570219 9.364356647009144 0  9.360191246290798 1.889986302787311 0  9.374824554239121 8.125 0  8.125 0.6251754457608796 0  8.110103260619079 3.140030154772246 0  9.367462718860255 3.117506830667309 0  9.360276396535061 9.360276396535061 0  10 0.625 0  9.375 0 0  0.6718845514179709 9.328115448582029 0  0.6718845514179738 0.671884551417974 0  0.6252707365992336 6.872955555725 0  3.125 10 0  1.930626943878649 4.281569467265474 0  2.166098978946731 3.256154061197009 0  0 3.125 0  3.24490641379911 1.874227206196345 0  4.375 0 0  6.24528584502123 7.859128418502952 0  3.372555109391759 9.122213048817835 0  7.125115810101655 3.32481376209067 0  6.518937326666101 3.931294464879644 0  0.6294854495481924 1.803884990381194 0  9.374955352954586 4.278924226850261 0  3.340086357073421 0.7260714220376305 0  4.407675578536106 1.984306553857061 0  6.995329811007009 9.368718761903855 0  7.030488805927661 6.824106380937062 0  1.832745784532399 7.302060510260434 0  3.793856604979397 6.45548174406993 0  3.302730492366902 7.094630057496399 0  2.264317047872121 6.622528084928073 0  0 8.125 0  3.619764789488634 3.858170131500536 0  4.809533851079751 9.198946189517734 0  9.235851937969425 7.360812901894209 0  7.399870113940684 0.848812574976799 0  8.125 10 0  8.12818958240511 4.24088624549136 0  1.656219984581841 5.859105462713216 0  7.66194676072481 4.849087268447366 0  4.56205730738654 7.961273900611192 0  7.832141117865442 8.179894501003959 0  8.42963329327514 6.099017498410762 0  7.114170644544133 1.887196636064217 0  6.875 0 0  4.512850758385448 3.346678772948598 0  6.958450246993527 7.981246762236177 0  0.7206281542170559 8.252510380020961 0  9.262570163491095 0.7374298365089046 0  4.0625 0.6377232150431691 0  0.7588267982127279 3.096534204957019 0  8.299940316843887 9.30479443431005 0  4.482292174982793 6.629885056144825 0  6.295435933129137 9.298012546264818 0  6.227566314612962 6.237161009365162 0  5.644150190639389 6.622223383766955 0  3.356407443190571 5.573307699636366 0  8.155690032825335 7.125761127739697 0  8.104157944886294 2.148203430801016 0  4.02637088174769 9.3611182473956 0  6.116309641530274 1.515348705003571 0  2.620835484783206 5.549538932621628 0  5.978678459905598 8.494101919232964 0  6.370549931657234 0.6805676201521447 0  10 6.875 0  9.319293531819399 6.369901553367093 0  5.667616539986666 3.425394228399495 0  5.672053398084052 7.374877159110779 0  0.6870138590775676 3.897472165971907 0  1.828803548322936 2.64759741429768 0  0.6723431162417803 6.200433195389051 0  5.894273988853201 2.522330329344644 0  6.850458438133735 2.717866506790418 0  4.941950255974137 8.528891095897622 0  4.742449613607294 0.6293405631033336 0  9.35097262831559 4.931152233783056 0  7.769606751328654 3.696200900749275 0  0 4.375 0  1.316521962984352 0.6418967882543624 0  3.478252664165245 2.506093101477126 0  3.945801058433374 8.091518976804174 0  2.046950909185547 1.335529230658999 0  6.875 10 0  10 4.375 0  0 1.875 0  0 6.875 0  0.625 0 0  0 0.625 0  0.625 10 0  10 3.125 0  8.125 0 0  10 8.125 0  10 1.875 0  1.875 0 0  5.625 0 0  10 5.625 0  0 5.625 0  5.625 10 0  3.125 0 0  1.875 10 0  10 9.375 0  9.375 10 0  0 9.375 0  4.375 10 0  3.444137048810791 4.478405675214477 0  8.74618709364416 3.128635861568952 0  8.738826608286892 1.886261651223851 0  2.573669209433039 0.616680323845478 0  2.522781584968567 1.844522657134893 0  1.527115617392484 4.768666410104626 0  2.8125 9.43806671659171 0  2.398441898706021 4.702034725996353 0  1.915624844741465 8.7465046343862 0  2.565113444224413 8.145669255069771 0  9.382187377079948 8.742810580703335 0  6.733871262473624 7.386452849986582 0  9.385844803683909 2.50361613959506 0  3.904604634424869 3.320083797567698 0  4.952727957411181 2.336780533443504 0  1.276834988327237 9.392251419363062 0  6.800509752791006 4.471193157452792 0  7.306309907099386 8.471947145773347 0  6.537216704528388 5.531625642578874 0  7.371473270836095 5.545308958046653 0  3.546602703168288 7.64317321406155 0  3.828107599784181 1.910078079268086 0  1.342555399392962 3.013362749064504 0  1.206821491497361 1.872776676101541 0  0.5769084626609742 2.389014696033135 0  9.419599850172359 3.697903345846763 0  9.311381185428738 1.313708028946744 0  3.249100715311912 1.296551895127531 0  8.692454969321656 0.6947818128396638 0  2.828407574756107 6.759854751292194 0  0.5716884255903881 1.234925952412458 0  2.239357837951415 6.018510816415389 0  0.609052490321687 5.079138898173932 0  1.45564836539006 5.332916043198249 0  5.269080422659868 9.512850463559674 0  2.732165275290277 3.360727555199645 0  1.313643185932573 7.117585065113403 0  0.5603178963065959 7.433459691415289 0  1.264745468554045 8.148411519621547 0  5.322769828642348 0.5096588854080794 0  0.5554619021653749 8.783932478787106 0  8.544164743213932 5.572190078245881 0  7.722514386552905 5.98182194893689 0  5.581093781507468 1.457449556146221 0  8.169892779632299 8.64246205647742 0  7.768863333557405 9.501538765786831 0  4.991671906942256 7.588026397971917 0  8.82348343250001 9.459146765518989 0  8.187357621454453 4.769053887276899 0  8.265717395092183 1.639799677919589 0  1.868281829562149 3.727508698592418 0  6.88796022557182 0.7478643970706418 0  5.022282678782565 3.477559532613619 0  4.636824246213867 2.761639576703376 0  4.901370484234742 1.818536638424832 0  1.174793129240801 6.060068945137116 0  5.460492491494645 8.516804942487026 0  1.380914535906892 4.2368704148823 0  4.987189847606268 6.513702901741831 0  4.407379426822672 1.031364759954965 0  4.570839565533561 7.136214119286898
[...]
<CellData  Scalars="detF"> 
<DataArray  type="Float64"  Name="detF"  format="ascii">9.2854073291179950e-01   1.0235182526772957e+00   9.0840506151910139e-01   1.0406478355640956e+00   3.2135932980518656e-01   9.2576768844578294e-01   9.9165073115958080e-01   9.3102780331642587e-01   7.4076544971626712e-01   9.3201315031689458e-01   1.0519992245190368e+00   1.0422258553166652e+00   1.0307217580002321e+00   1.0435800641816986e+00   1.0435545670102178e+00   3.4718464245839642e-01   1.0411720049168787e+00   9.9705239011405278e-01   9.2626726002587734e-01   3.1818837648409659e-01   4.1657193195977577e-01   1.0466647791842336e+00   9.3371156527751142e-01   1.0276530758588744e+00   8.8125975305226822e-01   7.3810505438383367e-01   9.0440060585608495e-01   9.3716107608733201e-01   1.0413838287424413e+00   9.4434229776178213e-01   9.5430302635853914e-01   1.0413062804293711e+00   3.5807317352832241e-01   9.5747821346042628e-01   1.0413123382395952e+00   9.1268285355605827e-01   1.0369694530243776e+00   9.0656798105675618e-01   8.9751327366814604e-01   8.9016351112473180e-01   9.9083986760599874e-01   9.7236447933326664e-01   9.8344641033181945e-01   1.0417431965243067e+00   9.1345378538205990e-01   9.1183290288948238e-01   8.6594247850824069e-01   1.0380412377077850e+00   9.1514342270056270e-01   1.0430948223477781e+00   1.0251975771510837e+00   1.0109801119284354e+00   9.4670837031572630e-01   1.0408544322768190e+00   8.2898583074387677e-01   1.0136724996148472e+00   9.4781380494854006e-01   9.0365734521413432e-01   1.0463187584480302e+00   1.0368661331399367e+00   1.0299957011792957e+00   8.8479679094359831e-01   9.3385619572657752e-01   9.0414531645887719e-01   9.1150441460832232e-01   9.3276399242851182e-01   8.9858294072683775e-01   1.0369617629145798e+00   1.0350842759950356e+00   9.6124511708208460e-01   1.0188584338826545e+00   1.0166451405066677e+00   1.0064307474335292e+00   9.4916281664550883e-01   1.0330660976096844e+00   1.0480344934057944e+00   1.0318915535437472e+00   1.0440098214018223e+00   1.0433469124249142e+00   1.0418526336658491e+00   9.2700803383286068e-01   9.3672726013663565e-01   1.0428371658993443e+00   1.0385214395689415e+00   1.0404968907937211e+00   9.3582904541552103e-01   9.0141910061278485e-01   1.0413114257236813e+00   1.0511698281808608e+00   1.0408201096462344e+00   1.0383360040804126e+00   1.0453273713427984e+00   1.0163993047738786e+00   9.5574472420052714e-01   9.1495257926465878e-01   9.8202517033002457e-01   7.9626123357933210e-01   1.0532460839488591e+00   9.1365414474711426e-01   1.0191775084178003e+00   1.0257052178567012e+00   1.0078565852957622e+00   1.0429143066153852e+00   1.0204812440464415e+00   1.0535932785456690e+00   1.0410783592060793e+00   1.0420985929261672e+00   1.0410625214246596e+00   1.0475471902919546e+00   1.0350343985167865e+00   1.0274267311663654e+00   1.0404308295080602e+00   1.0419311115277572e+00   1.0282546917232451e+00   1.0447544111807008e+00   1.0452346903538803e+00   1.0459873895983107e+00   1.0379582242194836e+00   1.0361165165009991e+00   1.0410894665338148e+00   1.0074571390379510e+00   1.0068109077540055e+00   1.0415480266338142e+00   1.0394451566374712e+00   1.0369168833313271e+00   1.0426112159793337e+00   1.0308795405083164e+00   1.0104899011643371e+00   1.0369746728835905e+00   1.0516046148623026e+00   1.0505290315166400e+00   1.0401381896790183e+00   9.5665698544827193e-01   9.1796006001511798e-01   9.1884753633994276e-01   1.0058997895170447e+00   1.0419145596720261e+00   1.0164034972123754e+00   9.8875158140661223e-01   1.0342279390110987e+00   1.0286960343654792e+00   1.0393028608977126e+00   1.0430773452282993e+00   1.0425608001080791e+00   1.0434926594642677e+00   1.0390078656114452e+00   1.0234762698371702e+00   1.0061551542732052e+00   1.0337376907341909e+00   9.2583307969451001e-01   7.3424405163113982e-01   1.0427815556087681e+00   1.0376469412832738e+00   1.0391289594013404e+00   1.0431591210236901e+00   1.0391268691452447e+00   1.0246212668980355e+00   1.0418757723608594e+00   1.0357079360882684e+00   1.0410731296742766e+00   1.0413890399548373e+00   1.0367725349595391e+00   1.0406337967840618e+00   1.0289935547389972e+00   1.0413691771604889e+00   1.0382984652533549e+00   1.0408655789579377e+00   1.0375244064833367e+00   1.0431941003105407e+00   1.0435549283241756e+00   1.0427098684644500e+00   1.0351991723729554e+00   1.0201925248029640e+00   1.0292121434287154e+00   1.0296204464126586e+00   1.0294133501516334e+00   1.0355946475487452e+00   1.0334801704589569e+00   1.0443989451449331e+00   1.0440646989782403e+00   1.0524745528024100e+00   1.0419619485336782e+00   1.0441087858843263e+00   1.0392327677964655e+00   1.0414692039529707e+00   1.0377712291912886e+00   1.0392821415636071e+00   1.0518824970467737e+00   1.0503747732345525e+00   1.0379006415785690e+00   1.0346116614771201e+00   1.0406065456123357e+00   1.0459726854489255e+00   1.0286701630252160e+00   1.0228128927464359e+00   9.3387856015038750e-01   9.3693903600255113e-01   1.0382693916938674e+00   1.0349503797545871e+00   1.0479628609611120e+00   1.0418853756689697e+00   1.0250569066866175e+00   1.0442394024732282e+00   1.0286683525797520e+00   1.0399251972610892e+00   1.0312859439886002e+00   1.0349632408575524e+00   1.0071193152071261e+00   9.5285885987045060e-01   1.0259008327975490e+00   1.0423050355499288e+00   1.0226526599410679e+00   1.0259512696257531e+00   1.0329033534032654e+00   1.0049587910734561e+00   9.9792209889146077e-01   1.0480963227570490e+00   1.0454517690319016e+00   1.0480071458947644e+00   1.0317792064562963e+00   1.0352408102493338e+00   1.0411833052424788e+00   1.0407126623759932e+00   1.0323194565283111e+00   1.0317258719649762e+00   1.0379433862242129e+00   1.0065795598204457e+00   1.0151907784620835e+00   1.0314968843894747e+00   1.0409339524314145e+00   1.0351428651988728e+00   1.0422355760580706e+00   1.0291161082234632e+00   1.0417910579280776e+00   1.0413912654218074e+00   1.0481017318194337e+00   8.9961093014895976e-01   9.4301009226466936e-01   1.0421404869559745e+00   1.0419896131806614e+00   1.0408071350834396e+00   1.0345659598788024e+00   1.0362000412125250e+00   1.0334217506010961e+00   1.0485479663906969e+00   1.0551726310917369e+00   1.0422697120404281e+00   1.0421816287902013e+00   1.0340905766202935e+00   1.0407796908328115e+00   9.0415864870878471e-01   9.7459551152837942e-01   1.0442417637372523e+00   6.8240468787159281e-01   9.1501305435605840e-01   9.3220613345234737e-01   8.8723786135004434e-01   1.0014066207049261e+00   1.0108590926582690e+00   1.0419292617667908e+00   1.0407229973077232e+00   1.0431838782683316e+00   1.0427817118919056e+00   1.0472643786090849e+00   1.0458462381718630e+00   1.0497014668619877e+00   1.0482590925317021e+00   1.0228891339233628e+00   1.0294513520277411e+00   1.0452205314123977e+00   1.0417161160513515e+00   1.0438203431356463e+00   1.0481800991962955e+00   1.0480972406305178e+00   1.0472427901869374e+00   1.0458201142799548e+00   9.3874506661649315e-01   9.2710124404641381e-01   1.0218948797995804e+00   1.0236025098221004e+00   1.0461777853855627e+00   1.0452289923623601e+00   1.0423216585612562e+00   1.0396379877618436e+00   1.0407294714420969e+00   9.7638568711102403e-01   1.0358102599390939e+00   1.0330218994790614e+00   1.0164839342606544e+00   1.0431030139021820e+00   1.0485489391914518e+00   1.0477345426087918e+00   1.0492780213724466e+00   1.0279961630784813e+00   1.0248132943930786e+00   1.0510921932370050e+00   1.0360614684486271e+00   1.0320807463618455e+00   1.0131706724763754e+00   1.0449096560881070e+00   1.0416296482405139e+00   1.0413073761741840e+00   1.0392118968780339e+00   1.0490273841314524e+00   1.0437172548326910e+00   1.0381183221568615e+00   1.0416767597236385e+00   1.0261324976585651e+00   1.0283902327692880e+00   1.0263975323649164e+00   1.0497054199750981e+00   1.0433488458762334e+00   1.0352851002841588e+00   1.0336678579429450e+00   1.0395600347794121e+00   1.0409164396941195e+00   1.0319225466796262e+00   1.0370098928354501e+00   1.0510973981750591e+00   1.0498950348407488e+00   1.0484675234949792e+00   1.0540317605161222e+00   1.0507855804738053e+00   1.0311659585784385e+00   1.0400670592152745e+00   1.0265225054697948e+00   1.0306507807749317e+00   1.0484483548098895e+00   9.7703562144505374e-01   9.8139962677832393e-01   1.0435063621463900e+00   1.0410326525464297e+00   1.0413558895445811e+00   1.0394282820268865e+00   1.0456547807330105e+00   1.0424851260751926e+00   1.0392761944712294e+00   1.0389597315760706e+00   1.0424578473945161e+00   1.0364214542379997e+00   1.0434372348683154e+00   1.0423079803723136e+00   1.0081657351793174e+00   1.0205503733723558e+00   1.0406220073577190e+00   1.0432284152464772e+00   1.0403569870791061e+00   1.0409354537551123e+00   1.0315293200582578e+00   1.0180307962981301e+00   1.0217734501215323e+00   1.0427928440399896e+00   1.0200076296093217e+00   9.6785006131206630e-01   1.0234229665899299e+00   1.0243553782230166e+00   1.0373040119058956e+00   9.9895290198829745e-01   9.8693585467477873e-01   1.0434687453984992e+00   1.0430638891213955e+00   9.5792154674008745e-01   8.9074009879684501e-01   1.0070197007424588e+00   1.0158674917482973e+00   1.0378093027665694e+00   1.0365853994916001e+00   1.0391395162046915e+00   1.0368904124215828e+00   1.0459603148618428e+00   1.0422012113970389e+00   1.0411843030469952e+00   1.0400078373647217e+00   1.0413432361477608e+00   1.0497325740068137e+00   1.0384388611637736e+00   1.0330131179580504e+00   1.0415517837900898e+00   1.0420153247973567e+00   1.0363963375979899e+00   1.0380008147248119e+00   1.0204705874864806e+00   1.0353236653622975e+00   1.0312603787874455e+00   1.0391801350546299e+00   1.0425105592624082e+00   1.0508639762842633e+00   1.0328922517217725e+00   1.0418216847755108e+00   1.0466578318586925e+00   1.0237230397808692e+00   9.8996059334442010e-01   1.0414923712878779e+00   1.0439966832904708e+00   1.0385464496573360e+00   1.0354325035784191e+00   1.0406745801015791e+00   1.0494557567644398e+00   1.0454767799735634e+00   1.0307025760897759e+00   1.0431569087861341e+00   1.0402416347052088e+00   1.0369809708203972e+00   1.0404136024993889e+00   1.0386789052750329e+00   1.0335356623619585e+00   1.0350759718267477e+00   1.0392728579371944e+00   1.0430683356408559e+00   1.0398724730255051e+00   1.0081440542246349e+00   1.0199240225378343e+00   1.0256824366348989e+00   1.0302045612825532e+00   1.0404591488090047e+00   1.0383398326285667e+00   1.0399537739338642e+00   1.0380119378176400e+00   1.0431516900332611e+00   1.0422378140235231e+00   1.0480542076290873e+00   9.2553895688416588e-01   9.3188588542218664e-01   9.7496170152298445e-01   1.0125395030517532e+00   1.0305464882456361e+00   1.0383113216017850e+00   1.0404111803879588e+00   1.0282685671578169e+00   1.0374359991820556e+00   1.0459149648465726e+00   1.0470467241465651e+00   1.0418356706802530e+00   9.3350152535437680e-01   9.1952535437785621e-01   1.0435596117343153e+00   1.0433355316553028e+00   1.0361157118490945e+00   1.0251759679951322e+00   1.0406184458881509e+00   1.0411889541006212e+00   1.0405091765091452e+00   1.0448640937240419e+00   1.0416506266073131e+00   1.0417374621910067e+00   1.0399894418124307e+00   1.0359608716527278e+00   1.0376891714653136e+00   1.0394749632713032e+00   1.0429704047796349e+00   1.0432852042736538e+00   1.0465102048866650e+00   1.0417922659107726e+00   1.0481244117012691e+00   1.0468263061863752e+00   3.1920127461568953e-01   9.7713646323114545e-01   1.0101597253465027e+00   1.0181067765946603e+00   1.0088766468983443e+00   1.0142136813302152e+00   1.0491484291730915e+00   1.0540415177597326e+00   1.0496218677527729e+00   1.0533669173889366e+00   1.0535822019585555e+00   8.8135411069122260e-01   8.7865200958295020e-01   1.0408461741603623e+00   1.0434762262144701e+00   1.0457649312188420e+00   1.0297554147525054e+00   1.0113967752824375e+00   1.0440919144125893e+00   1.0437478222118775e+00   1.0423679978989195e+00   1.0416929507237571e+00   1.0392717442563264e+00   1.0334325810913194e+00   1.0412213853416541e+00   1.0381555822973829e+00   1.0269971618068885e+00   1.0392029201858111e+00   1.0069262016998304e+00   1.0074244439004196e+00   1.0328893280776832e+00   1.0047922228059967e+00   9.2927452962605528e-01   9.6176931973386770e-01   1.0410957476690350e+00   1.0328623471271365e+00   1.0382198302384915e+00   1.0429565751465164e+00   8.3151625203601010e-01   9.1894357926868897e-01   1.0374797725572902e+00   1.0368494170280136e+00   1.0416475009683122e+00   1.0436285528686209e+00   1.0439430739755802e+00   1.0438647933456788e+00   1.0434975267689444e+00   1.0426747247922514e+00   1.0404460565764562e+00   1.0412849910180524e+00   1.0518360412949825e+00   1.0437205142691135e+00   1.0473464655794746e+00   1.0409815173932346e+00   1.0388437261114525e+00   1.0209279412189458e+00   1.0040486799135850e+00   1.0488125962358383e+00   1.0413571243839701e+00   1.0373986259299579e+00   1.0430878210726611e+00   1.0385398424676568e+00   1.0515652237296882e+00   1.0491074907676434e+00   1.0430895778002907e+00   1.0486313474995030e+00   1.0252652383256009e+00   1.0096937296071387e+00   1.0374720442992378e+00   1.0377027450647145e+00   1.0397700484286800e+00   1.0407383075250034e+00   1.0292402418955291e+00   1.0213884175380556e+00   1.0480820932997683e+00   1.0481330204424273e+00   1.0459920611608484e+00   1.0430044496616164e+00   1.0366990571806920e+00   1.0365120497825049e+00   1.0060853499365052e+00   1.0189182079332268e+00   9.7761610099693963e-01   1.0065977290209152e+00   1.0394513988646883e+00   1.0481111103353276e+00   1.0436517996889860e+00   1.0268890562817130e+00   1.0227875306999228e+00   9.4064028857756044e-01   9.0788166366222967e-01   9.9107099454565806e-01   9.2995189597204753e-01   7.8538081555514105e-01   9.0376332016105743e-01   1.0282876215553900e+00   1.0158517562016138e+00   1.0452093261625297e+00   1.0444077556896971e+00   1.0466373052776323e+00   1.0463820579129810e+00   1.0461800431865313e+00   1.0218442528974083e+00   1.0296368293564422e+00   1.0407798287992716e+00   1.0430788185143551e+00   1.0444873714803549e+00   1.0255260011735918e+00   1.0285231634796363e+00   1.0421471769429493e+00   1.0429535289575129e+00   1.0270900731646841e+00   9.9737964564637727e-01   1.0377679768408021e+00   1.0404905311227064e+00   1.0355444327318637e+00   1.0420891622578139e+00   1.0421736334912819e+00   1.0427258315000865e+00   1.0413389924668757e+00   1.0301208538447946e+00   1.0385255910154694e+00   1.0361203731040975e+00   1.0408324545053094e+00   1.0407682878268052e+00   1.0439450826354235e+00   1.0373827819384422e+00   1.0400576197708293e+00   1.0419502791113153e+00   1.0345481269984778e+00   1.0244052183346501e+00   1.0353305773638970e+00   1.0260153989972869e+00   1.0287885081675263e+00   1.0310538487146357e+00   1.0344554606484078e+00   1.0358897643933513e+00   1.0323072133556253e+00   1.0129157063969336e+00   1.0378840426272020e+00   1.0303763136778852e+00   9.2719251170914352e-01   9.9810415267900277e-01   1.0429269430269252e+00   1.0411340982129573e+00   1.0400137964086906e+00   1.0409772849299983e+00   1.0405846945948953e+00   1.0413837298088917e+00   1.0362793384678226e+00   1.0366126022687319e+00   1.0407481788721107e+00   1.0411046877097749e+00   1.0330813930380687e+00   1.0329740109403123e+00   1.0402571286544633e+00   1.0398890899523827e+00   1.0399582030754997e+00   1.0383657989117610e+00   1.0343817788466676e+00   1.0416237555181069e+00   1.0422446416578315e+00   1.0344457927038961e+00   1.0439974070685973e+00   1.0431339791593588e+00   1.0433866187911698e+00   1.0452041018825382e+00   1.0429542453772853e+00   1.0366182120090623e+00   1.0253635161952135e+00   1.0202867671179721e+00   1.0265280043275729e+00   1.0219735657076936e+00   1.0301085686148173e+00   1.0455937062190470e+00   1.0450886588851389e+00   1.0497276757693179e+00   1.0465573358961227e+00   1.0237309095400913e+00   1.0380514038700266e+00   1.0508044795027724e+00   1.0452624021685704e+00   1.0362999465155871e+00   1.0416993825059786e+00   1.0365739181670370e+00   1.0276216989880675e+00   1.0288250942233494e+00   1.0397432304155378e+00   1.0310042455039519e+00   1.0357362624394217e+00   1.0431679925708375e+00   1.0006100389878632e+00   1.0275652240491229e+00   1.0284622533385730e+00   1.0358838038543550e+00   1.0365731523788271e+00   1.0348807593122400e+00   1.0468269739401570e+00   1.0435212546205310e+00   1.0448978743419630e+00   1.0397215765079593e+00   1.0421815949478006e+00   7.2259851432188316e-01   8.9579056712839933e-01   1.0421899280713318e+00   1.0382946507117359e+00   1.0523969360597456e+00   1.0467967938342446e+00   1.0379376477126814e+00   1.0282172920562787e+00   1.0368564448696611e+00   1.0374678978662881e+00   1.0414317321683735e+00   1.0416660117886383e+00   1.0515482653666983e+00   1.0493061494300420e+00   1.0349309301544731e+00   1.0497905219535606e+00   1.0521159661305555e+00   1.0348410475361867e+00   1.0447272867313575e+00   1.0355851587736766e+00   1.0326040386814315e+00   1.0340476703718784e+00   1.0389881266563286e+00   1.0401166779351207e+00   1.0235264708110390e+00   9.9443077965191928e-01   9.8355975173267585e-01   1.0444572595291839e+00   1.0429448748084218e+00   1.0444882021479016e+00   1.0466145573004697e+00   1.0463267902389100e+00   7.1449847940789324e-01   8.6953369785763723e-01   1.0312510638328092e+00   1.0335742099108141e+00   1.0483447735868634e+00   1.0469855461448192e+00   1.0105568540298016e+00   1.0290032554166058e+00   1.0340725417351597e+00   1.0259145322155150e+00   1.0497330271183056e+00   1.0481212517924996e+00   1.0373305535382744e+00   1.0393850944434704e+00   1.0506850695626933e+00   1.0551566088504813e+00   1.0469261854524108e+00   1.0458674400025088e+00   1.0484379337465748e+00   1.0478704468392379e+00   1.0291477189393017e+00   1.0197820592478666e+00   1.0284886709731935e+00   1.0343493950747484e+00   1.0549358435788232e+00   1.0582293289804858e+00   1.0436946057090433e+00   1.0425460036775733e+00   1.0496990056064623e+00   1.0472679450102687e+00   1.0475256697295572e+00   1.0431106384486677e+00   1.0421186055742000e+00   1.0392996106918286e+00   1.0427958646302029e+00   1.0173628461036694e+00   1.0346779121792500e+00   1.0256013304887961e+00   1.0223335975564349e+00   1.0409829837990092e+00   1.0373177553750204e+00   1.0366908475745760e+00   1.0342162235238290e+00   1.0432639622864890e+00   1.0487594249065286e+00   1.0415700710309712e+00   1.0465889332203946e+00   1.0431016801649298e+00   1.0428235881589651e+00   1.0368198947797473e+00   1.0395984170437411e+00   1.0260564457242536e+00   9.8400416820219383e-01   1.0194262393663640e+00   9.7863772999561383e-01   1.0294058471725180e+00   1.0386483900261922e+00   1.0454405108935041e+00   1.0461839121602745e+00   1.0409216364870959e+00   1.0431274835328266e+00   1.0378647832766892e+00   1.0382806122602632e+00   1.0418185343539781e+00   1.0364956062299406e+00   1.0275748400236819e+00   1.0114863292274023e+00   1.0527811349842067e+00   1.0539553914256321e+00   1.0176663037308571e+00   9.9903837105955806e-01   9.2385690112632424e-01   9.1004691446522912e-01   1.0509590307974261e+00   1.0521823307527169e+00   1.0203622177764424e+00   1.0159035135457670e+00   1.0485175089793806e+00   1.0395139164959348e+00   1.0352383613194636e+00   1.0448814254008518e+00   1.0470061603401881e+00   1.0437623707173525e+00   1.0444745864733902e+00   1.0388680620082229e+00   1.0410102023890924e+00   1.0415255126031284e+00   1.0410188785373533e+00   1.0414261891310816e+00   1.0307320198568362e+00   1.0344560659671584e+00   1.0372314527788553e+00   1.0368744596699493e+00   9.2837444073190745e-01   9.1236552464056686e-01   1.0247436021047229e+00   1.0245212845898271e+00   1.0486318581281779e+00   1.0449722370288743e+00   1.0467868490144221e+00   1.0504786265874422e+00   9.7898597765725726e-01   9.6121889383653947e-01   1.0422999111372828e+00   1.0332755457355438e+00   1.0325593863288143e+00   1.0272423754384186e+00   1.04826074242317