<?xml version="1.0"?>
<VTKFile type="UnstructuredGrid"  version="0.1"  >
<UnstructuredGrid>
<Piece  NumberOfPoints="12613" NumberOfCells="24648">
<Points>
<DataArray  type="Float64"  NumberOfComponents="3"  format="ascii">0 10 0  0 0 0  10 0 0  10 10 0  5.992114701314478 5.125333233564304 0  6 5 0  5.992114701314478 4.874666766435696 0  5.968583161128631 4.751310112835145 0  5.929776485888252 4.631875447315323 0  5.876306680043863 4.518246325898284 0  5.809016994374947 4.412214747707527 0  5.728968627421411 4.315452894071311 0  5.637423989748689 4.22948675722421 0  5.535826794978997 4.155672074497985 0  5.425779291565072 4.09517294753398 0  5.309016994374947 4.048943483704846 0  5.187381314585724 4.017712749271311 0  5.062790519529313 4.001973271571728 0  4.937209480470687 4.001973271571728 0  4.812618685414275 4.017712749271311 0  4.690983005625053 4.048943483704846 0  4.574220708434928 4.09517294753398 0  4.464173205021003 4.155672074497985 0  4.362576010251311 4.229486757224211 0  4.271031372578588 4.315452894071312 0  4.190983005625053 4.412214747707528 0  4.123693319956137 4.518246325898285 0  4.070223514111748 4.631875447315322 0  4.031416838871369 4.751310112835146 0  4.007885298685522 4.874666766435696 0  4 5 0  4.007885298685522 5.125333233564304 0  4.031416838871369 5.248689887164855 0  4.070223514111749 5.368124552684678 0  4.123693319956137 5.481753674101715 0  4.190983005625053 5.587785252292473 0  4.271031372578589 5.684547105928689 0  4.36257601025131 5.770513242775789 0  4.464173205021003 5.844327925502015 0  4.574220708434927 5.904827052466019 0  4.690983005625053 5.951056516295154 0  4.812618685414275 5.982287250728689 0  4.937209480470687 5.998026728428272 0  5.062790519529313 5.998026728428272 0  5.187381314585725 5.982287250728689 0  5.309016994374947 5.951056516295154 0  5.425779291565073 5.90482705246602 0  5.535826794978997 5.844327925502015 0  5.63742398974869 5.770513242775789 0  5.728968627421412 5.684547105928688 0  5.809016994374947 5.587785252292473 0  5.876306680043863 5.481753674101715 0  5.929776485888252 5.368124552684678 0  5.968583161128631 5.248689887164855 0  5 10 0  0 5 0  10 5 0  5 0 0  0 2.5 0  2.5 0 0  0 7.5 0  10 7.5 0  7.5 10 0  10 2.5 0  7.5 0 0  2.5 10 0  7.485014227815469 7.485014227815468 0  2.624291547813317 2.470127454275751 0  2.624291547813306 7.529872545724244 0  7.485014227815469 2.514985772184531 0  5.501322239123305 1.989844925476205 0  5.379553576772174 8.004475929833614 0  8.009762413667167 5.50092484241762 0  2 5.188744001760954 0  8.749910705909175 3.75 0  8.735102992990898 1.264897007009102 0  1.298640613344511 8.70135938665549 0  1.298640613344514 1.298640613344514 0  8.735102992990898 8.735102992990898 0  3.75 10 0  3.912893232829084 1.33196018051077 0  1.32486817239184 3.602721496273811 0  0 6.25 0  7.33800602899442 4.185061400278719 0  1.46012754946627 6.586509713609103 0  6.25 10 0  4.107618314163975 2.746101144635254 0  8.746887821637173 6.757315261531288 0  6.757712161714717 1.253114543328782 0  6.652390351926942 8.636871422196799 0  4.082811893307114 7.297579393422678 0  2.77185775043354 3.935002032188672 0  4.170229426070917 8.680048884324506 0  6.279207553947785 3.060640586921346 0  6.243921113202843 6.981280825327044 0  2.943794974478871 6.190871022350711 0  0 3.75 0  1.25 0 0  0 1.25 0  0 8.75 0  3.75 0 0  1.25 10 0  8.75 0 0  10 3.75 0  10 1.25 0  10 6.25 0  10 8.75 0  8.75 10 0  6.25 0 0  8.727654225028649 2.507537004222282 0  2.534024448053167 8.763521267692715 0  2.675330070144278 1.229368534631439 0  6.938317963016699 6.016222388396734 0  1.160966450995929 2.452397487456289 0  5.625 9.085018488154775 0  0.9534467980924162 5.587666637777538 0  9.059920331215721 5.729227516799859 0  5.729968520679604 0.9401057243527156 0  1.092141083367926 7.622001080218721 0  7.681674540101278 8.941941402997672 0  5.126847797924912 2.962082287113166 0  5.072611876314043 7.02470488787669 0  0.9313086115777203 4.556301549197934 0  2.984525138894107 4.930394751680348 0  8.718829002404984 4.768760792108237 0  8.475490130958471 7.744627089847896 0  7.744824371465027 1.524707150658661 0  7.780225167097711 6.538995998896642 0  3.32557460434723 8.201312828626905 0  6.953994462708644 5.060443590815006 0  6.429686829531911 2.133376767868373 0  4.85671980606795 1.299671875972767 0  3.266001241014683 3.14535385856259 0  1.948129212827459 8.100524007339061 0  1.898758825823051 1.95534337194406 0  1.958825626380582 0.7043680802078647 0  1.884535848570219 9.364356647009144 0  9.360191246290798 1.889986302787311 0  9.374824554239121 8.125 0  8.125 0.6251754457608796 0  8.110103260619079 3.140030154772246 0  9.367462718860255 3.117506830667309 0  9.360276396535061 9.360276396535061 0  10 0.625 0  9.375 0 0  0.6718845514179709 9.328115448582029 0  0.6718845514179738 0.671884551417974 0  0.6252707365992336 6.872955555725 0  3.125 10 0  1.930626943878649 4.281569467265474 0  2.166098978946731 3.256154061197009 0  0 3.125 0  3.24490641379911 1.874227206196345 0  4.375 0 0  6.24528584502123 7.859128418502952 0  3.372555109391759 9.122213048817835 0  7.125115810101655 3.32481376209067 0  6.518937326666101 3.931294464879644 0  0.6294854495481924 1.803884990381194 0  9.374955352954586 4.278924226850261 0  3.340086357073421 0.7260714220376305 0  4.407675578536106 1.984306553857061 0  6.995329811007009 9.368718761903855 0  7.030488805927661 6.824106380937062 0  1.832745784532399 7.302060510260434 0  3.793856604979397 6.45548174406993 0  3.302730492366902 7.094630057496399 0  2.264317047872121 6.622528084928073 0  0 8.125 0  3.619764789488634 3.858170131500536 0  4.809533851079751 9.198946189517734 0  9.235851937969425 7.360812901894209 0  7.399870113940684 0.848812574976799 0  8.125 10 0  8.12818958240511 4.24088624549136 0  1.656219984581841 5.859105462713216 0  7.66194676072481 4.849087268447366 0  4.56205730738654 7.961273900611192 0  7.832141117865442 8.179894501003959 0  8.42963329327514 6.099017498410762 0  7.114170644544133 1.887196636064217 0  6.875 0 0  4.512850758385448 3.346678772948598 0  6.958450246993527 7.981246762236177 0  0.7206281542170559 8.252510380020961 0  9.262570163491095 0.7374298365089046 0  4.0625 0.6377232150431691 0  0.7588267982127279 3.096534204957019 0  8.299940316843887 9.30479443431005 0  4.482292174982793 6.629885056144825 0  6.295435933129137 9.298012546264818 0  6.227566314612962 6.237161009365162 0  5.644150190639389 6.622223383766955 0  3.356407443190571 5.573307699636366 0  8.155690032825335 7.125761127739697 0  8.104157944886294 2.148203430801016 0  4.02637088174769 9.3611182473956 0  6.116309641530274 1.515348705003571 0  2.620835484783206 5.549538932621628 0  5.978678459905598 8.494101919232964 0  6.370549931657234 0.6805676201521447 0  10 6.875 0  9.319293531819399 6.369901553367093 0  5.667616539986666 3.425394228399495 0  5.672053398084052 7.374877159110779 0  0.6870138590775676 3.897472165971907 0  1.828803548322936 2.64759741429768 0  0.6723431162417803 6.200433195389051 0  5.894273988853201 2.522330329344644 0  6.850458438133735 2.717866506790418 0  4.941950255974137 8.528891095897622 0  4.742449613607294 0.6293405631033336 0  9.35097262831559 4.931152233783056 0  7.769606751328654 3.696200900749275 0  0 4.375 0  1.316521962984352 0.6418967882543624 0  3.478252664165245 2.506093101477126 0  3.945801058433374 8.091518976804174 0  2.046950909185547 1.335529230658999 0  6.875 10 0  10 4.375 0  0 1.875 0  0 6.875 0  0.625 0 0  0 0.625 0  0.625 10 0  10 3.125 0  8.125 0 0  10 8.125 0  10 1.875 0  1.875 0 0  5.625 0 0  10 5.625 0  0 5.625 0  5.625 10 0  3.125 0 0  1.875 10 0  10 9.375 0  9.375 10 0  0 9.375 0  4.375 10 0  3.444137048810791 4.478405675214477 0  8.74618709364416 3.128635861568952 0  8.738826608286892 1.886261651223851 0  2.573669209433039 0.616680323845478 0  2.522781584968567 1.844522657134893 0  1.527115617392484 4.768666410104626 0  2.8125 9.43806671659171 0  2.398441898706021 4.702034725996353 0  1.915624844741465 8.7465046343862 0  2.565113444224413 8.145669255069771 0  9.382187377079948 8.742810580703335 0  6.733871262473624 7.386452849986582 0  9.385844803683909 2.50361613959506 0  3.904604634424869 3.320083797567698 0  4.952727957411181 2.336780533443504 0  1.276834988327237 9.392251419363062 0  6.800509752791006 4.471193157452792 0  7.306309907099386 8.471947145773347 0  6.537216704528388 5.531625642578874 0  7.371473270836095 5.545308958046653 0  3.546602703168288 7.64317321406155 0  3.828107599784181 1.910078079268086 0  1.342555399392962 3.013362749064504 0  1.206821491497361 1.872776676101541 0  0.5769084626609742 2.389014696033135 0  9.419599850172359 3.697903345846763 0  9.311381185428738 1.313708028946744 0  3.249100715311912 1.296551895127531 0  8.692454969321656 0.6947818128396638 0  2.828407574756107 6.759854751292194 0  0.5716884255903881 1.234925952412458 0  2.239357837951415 6.018510816415389 0  0.609052490321687 5.079138898173932 0  1.45564836539006 5.332916043198249 0  5.269080422659868 9.512850463559674 0  2.732165275290277 3.360727555199645 0  1.313643185932573 7.117585065113403 0  0.5603178963065959 7.433459691415289 0  1.264745468554045 8.148411519621547 0  5.322769828642348 0.5096588854080794 0  0.5554619021653749 8.783932478787106 0  8.544164743213932 5.572190078245881 0  7.722514386552905 5.98182194893689 0  5.581093781507468 1.457449556146221 0  8.169892779632299 8.64246205647742 0  7.768863333557405 9.501538765786831 0  4.991671906942256 7.588026397971917 0  8.82348343250001 9.459146765518989 0  8.187357621454453 4.769053887276899 0  8.265717395092183 1.639799677919589 0  1.868281829562149 3.727508698592418 0  6.88796022557182 0.7478643970706418 0  5.022282678782565 3.477559532613619 0  4.636824246213867 2.761639576703376 0  4.901370484234742 1.818536638424832 0  1.174793129240801 6.060068945137116 0  5.460492491494645 8.516804942487026 0  1.380914535906892 4.2368704148823 0  4.987189847606268 6.513702901741831 0  4.407379426822672 1.031364759954965 0  4.570839565533561 7.136214119286898
[...]
<PointData  Vectors="u"> 
<DataArray  type="Float64"  Name="u"  NumberOfComponents="3" format="ascii">0.0000000000000000e+00 0.0000000000000000e+00 0.0000000000000000e+00  0.0000000000000000e+00 0.0000000000000000e+00 0.0000000000000000e+00  0.0000000000000000e+00 0.0000000000000000e+00 0.0000000000000000e+00  0.0000000000000000e+00 0.0000000000000000e+00 0.0000000000000000e+00  -4.6545737447207314e-01 -5.6072613459973324e-02 0.0000000000000000e+00  -4.7100751199667001e-01 -1.4259799063756254e-02 0.0000000000000000e+00  -4.6413258545842490e-01 7.3699417373077475e-02 0.0000000000000000e+00  -4.5855734993732089e-01 1.0413107137873780e-01 0.0000000000000000e+00  -4.3186216846376391e-01 1.9035252990447551e-01 0.0000000000000000e+00  -4.1021887834525078e-01 2.2826966756007860e-01 0.0000000000000000e+00  -3.9007357011052762e-01 2.6427543639012324e-01 0.0000000000000000e+00  -3.3052666125236985e-01 3.3599091303677803e-01 0.0000000000000000e+00  -2.9998339630960991e-01 3.6236348920498107e-01 0.0000000000000000e+00  -2.6169152092374637e-01 3.9227859840916263e-01 0.0000000000000000e+00  -2.0244225442876004e-01 4.2467298521046032e-01 0.0000000000000000e+00  -1.6349071379395777e-01 4.4235858853538207e-01 0.0000000000000000e+00  -7.5256855324654995e-02 4.6486270350438763e-01 0.0000000000000000e+00  -4.2461616517973498e-02 4.6789619045463549e-01 0.0000000000000000e+00  4.1274812928043879e-02 4.6897774570977735e-01 0.0000000000000000e+00  7.6633093831424318e-02 4.6368209618741407e-01 0.0000000000000000e+00  1.6508621849131597e-01 4.4245559677324842e-01 0.0000000000000000e+00  2.0638676393023053e-01 4.2225097712797238e-01 0.0000000000000000e+00  2.4100235012698698e-01 4.0499788626985572e-01 0.0000000000000000e+00  3.1231205451489819e-01 3.5132593275553126e-01 0.0000000000000000e+00  3.3904719841065994e-01 3.2838684191290574e-01 0.0000000000000000e+00  3.8162483387105262e-01 2.7518336759951179e-01 0.0000000000000000e+00  4.1128792862911934e-01 2.3111833229796624e-01 0.0000000000000000e+00  4.2816250106174242e-01 1.9526532918830114e-01 0.0000000000000000e+00  4.5631797529063983e-01 1.1461969877411690e-01 0.0000000000000000e+00  4.6455666508993981e-01 7.1604568467083102e-02 0.0000000000000000e+00  4.6968958434140368e-01 -2.0204082822570833e-02 0.0000000000000000e+00  4.6581929587799181e-01 -6.5580858255500932e-02 0.0000000000000000e+00  4.5571461252706597e-01 -1.1200001793104930e-01 0.0000000000000000e+00  4.4433323408602149e-01 -1.5887164449379687e-01 0.0000000000000000e+00  4.0431640366727295e-01 -2.4325064682628686e-01 0.0000000000000000e+00  3.7590534477343629e-01 -2.8339658140133567e-01 0.0000000000000000e+00  3.4543216890131206e-01 -3.1942169575479307e-01 0.0000000000000000e+00  3.1401320477797673e-01 -3.5310463662488734e-01 0.0000000000000000e+00  2.3883656015851998e-01 -4.0534228409661210e-01 0.0000000000000000e+00  2.1059856118427700e-01 -4.2073524734169354e-01 0.0000000000000000e+00  1.5242769803654835e-01 -4.4458852788036796e-01 0.0000000000000000e+00  1.0031172430648927e-01 -4.5985399220007245e-01 0.0000000000000000e+00  2.2828119880638702e-02 -4.6880105364096397e-01 0.0000000000000000e+00  -1.6054519340067158e-02 -4.6969788502667720e-01 0.0000000000000000e+00  -1.0337732969285592e-01 -4.5923731836803527e-01 0.0000000000000000e+00  -1.4555066659485735e-01 -4.4650251661479468e-01 0.0000000000000000e+00  -1.8968085819449465e-01 -4.3033312323692835e-01 0.0000000000000000e+00  -2.6883637639319119e-01 -3.8800237870427928e-01 0.0000000000000000e+00  -3.0399919468907088e-01 -3.5973969486445972e-01 0.0000000000000000e+00  -3.4107570039383828e-01 -3.2445870190094794e-01 0.0000000000000000e+00  -3.6829735379759687e-01 -2.9408034584481180e-01 0.0000000000000000e+00  -4.1793010608701486e-01 -2.1867264382898968e-01 0.0000000000000000e+00  -4.2990483217703868e-01 -1.8674119396361746e-01 0.0000000000000000e+00  -4.5918775732246420e-01 -1.0170643722097153e-01 0.0000000000000000e+00  0.0000000000000000e+00 0.0000000000000000e+00 0.0000000000000000e+00  0.0000000000000000e+00 0.0000000000000000e+00 0.0000000000000000e+00  0.0000000000000000e+00 0.0000000000000000e+00 0.0000000000000000e+00  0.0000000000000000e+00 0.0000000000000000e+00 0.0000000000000000e+00  0.0000000000000000e+00 0.0000000000000000e+00 0.0000000000000000e+00  0.0000000000000000e+00 0.0000000000000000e+00 0.0000000000000000e+00  0.0000000000000000e+00 0.0000000000000000e+00 0.0000000000000000e+00  0.0000000000000000e+00 0.0000000000000000e+00 0.0000000000000000e+00  0.0000000000000000e+00 0.0000000000000000e+00 0.0000000000000000e+00  0.0000000000000000e+00 0.0000000000000000e+00 0.0000000000000000e+00  0.0000000000000000e+00 0.0000000000000000e+00 0.0000000000000000e+00  0.0000000000000000e+00 0.0000000000000000e+00 0.0000000000000000e+00  -9.2800603329157627e-02 -9.2858261947986048e-02 0.0000000000000000e+00  9.3335461996661775e-02 9.7645504221653565e-02 0.0000000000000000e+00  9.3029196533710362e-02 -9.7157924428529427e-02 0.0000000000000000e+00  -9.2839683478082843e-02 9.3020516865092592e-02 0.0000000000000000e+00  -2.9340203387617236e-02 1.4596800614774977e-01 0.0000000000000000e+00  -2.2578942337190867e-02 -1.4840432282408256e-01 0.0000000000000000e+00  -1.4587676079290726e-01 -2.9350491749213222e-02 0.0000000000000000e+00  1.5098353920629259e-01 -1.1204366828088104e-02 0.0000000000000000e+00  -7.4428639998890642e-02 3.5223993632548363e-02 0.0000000000000000e+00  -3.0422106333058044e-02 3.0458419471165493e-02 0.0000000000000000e+00  3.1724553587971875e-02 -3.1666067286580578e-02 0.0000000000000000e+00  3.1825182388831322e-02 3.1841854310847899e-02 0.0000000000000000e+00  -3.0363863708551372e-02 -3.0347785108729892e-02 0.0000000000000000e+00  0.0000000000000000e+00 0.0000000000000000e+00 0.0000000000000000e+00  3.4132777029351462e-02 8.2637199947233564e-02 0.0000000000000000e+00  7.6733078734979532e-02 4.0277313187946417e-02 0.0000000000000000e+00  0.0000000000000000e+00 0.0000000000000000e+00 0.0000000000000000e+00  -1.9905814010933989e-01 7.6492970533360946e-02 0.0000000000000000e+00  8.0851370408118517e-02 -4.7658135485170429e-02 0.0000000000000000e+00  0.0000000000000000e+00 0.0000000000000000e+00 0.0000000000000000e+00  8.7732681728904319e-02 2.0211322579898927e-01 0.0000000000000000e+00  -6.5504533644503024e-02 -4.2295096143872953e-02 0.0000000000000000e+00  -4.2370344772459954e-02 6.5713285617935213e-02 0.0000000000000000e+00  -4.4972975805933936e-02 -7.3686410589153137e-02 0.0000000000000000e+00  8.6061290028011397e-02 -1.9695862091128291e-01 0.0000000000000000e+00  1.9306129112747353e-01 1.0057695302381858e-01 0.0000000000000000e+00  2.7177290638753474e-02 -8.5716585322572147e-02 0.0000000000000000e+00  -1.3414486892942937e-01 1.9518518955695260e-01 0.0000000000000000e+00  -1.2819651466572349e-01 -1.9540784433875857e-01 0.0000000000000000e+00  1.9514243045800234e-01 -1.1978492912780198e-01 0.0000000000000000e+00  0.0000000000000000e+00 0.0000000000000000e+00 0.0000000000000000e+00  0.0000000000000000e+00 0.0000000000000000e+00 0.0000000000000000e+00  0.0000000000000000e+00 0.0000000000000000e+00 0.0000000000000000e+00  0.0000000000000000e+00 0.0000000000000000e+00 0.0000000000000000e+00  0.0000000000000000e+00 0.0000000000000000e+00 0.0000000000000000e+00  0.0000000000000000e+00 0.0000000000000000e+00 0.0000000000000000e+00  0.0000000000000000e+00 0.0000000000000000e+00 0.0000000000000000e+00  0.0000000000000000e+00 0.0000000000000000e+00 0.0000000000000000e+00  0.0000000000000000e+00 0.0000000000000000e+00 0.0000000000000000e+00  0.0000000000000000e+00 0.0000000000000000e+00 0.0000000000000000e+00  0.0000000000000000e+00 0.0000000000000000e+00 0.0000000000000000e+00  0.0000000000000000e+00 0.0000000000000000e+00 0.0000000000000000e+00  0.0000000000000000e+00 0.0000000000000000e+00 0.0000000000000000e+00  -5.2599926213588270e-02 4.5115332183724807e-02 0.0000000000000000e+00  4.4095508362860573e-02 -5.1761559221501316e-02 0.0000000000000000e+00  4.4116088652507733e-02 5.4208811502416798e-02 0.0000000000000000e+00  -2.1897210786527921e-01 -1.2107125486459479e-01 0.0000000000000000e+00  4.7592566515482347e-02 4.1456203225514264e-02 0.0000000000000000e+00  -1.4236515969861167e-02 -5.8451467532566019e-02 0.0000000000000000e+00  6.1418931847053250e-02 -1.3940631385243983e-02 0.0000000000000000e+00  -5.9492181404071372e-02 -1.6842189245934384e-02 0.0000000000000000e+00  -1.6782730654815177e-02 5.9586328062066984e-02 0.0000000000000000e+00  4.3575705319951849e-02 -3.8687022123377497e-02 0.0000000000000000e+00  -3.7287502142913972e-02 -4.1296397235355942e-02 0.0000000000000000e+00  -1.7945038645484863e-02 2.6485923247606635e-01 0.0000000000000000e+00  -1.0071492252551049e-02 -2.6733213871556766e-01 0.0000000000000000e+00  6.0580291431435493e-02 1.0618462678492639e-02 0.0000000000000000e+00  2.6754804989333569e-01 1.0701685125518466e-02 0.0000000000000000e+00  -8.8046993306254998e-02 7.9206589052471469e-03 0.0000000000000000e+00  -5.6298016224870892e-02 -5.1415204308733954e-02 0.0000000000000000e+00  -5.1505547969117035e-02 5.6489575116714770e-02 0.0000000000000000e+00  -1.2696468969764135e-01 -7.9394312794053942e-02 0.0000000000000000e+00  6.2161002651719463e-02 -9.7973988905401696e-02 0.0000000000000000e+00  -2.7851069408289819e-01 -8.7570570822344783e-03 0.0000000000000000e+00  -7.2938208898403398e-02 1.2704919085533903e-01 0.0000000000000000e+00  5.1051435242522279e-03 8.9704340266938534e-02 0.0000000000000000e+00  1.4746215067161972e-01 1.5641621111977511e-01 0.0000000000000000e+00  5.8423921448791674e-02 -5.8716519154669918e-02 0.0000000000000000e+00  5.9151660971423992e-02 5.8791890383617873e-02 0.0000000000000000e+00  2.4763749592574859e-02 2.4936093719618933e-02 0.0000000000000000e+00  2.2251236593233269e-02 -2.1926867915112010e-02 0.0000000000000000e+00  -2.2085167484790457e-02 2.2367975064830098e-02 0.0000000000000000e+00  -2.1448864327385617e-02 -2.1771441281693775e-02 0.0000000000000000e+00  -2.1806543179647690e-02 2.1510197828568375e-02 0.0000000000000000e+00  -9.6316738751778874e-02 6.7925908244474087e-02 0.0000000000000000e+00  -3.1380314383032952e-02 2.2703680180048803e-02 0.0000000000000000e+00  -1.1072617047255155e-02 -1.1070116663405273e-02 0.0000000000000000e+00  0.0000000000000000e+00 0.0000000000000000e+00 0.0000000000000000e+00  0.0000000000000000e+00 0.0000000000000000e+00 0.0000000000000000e+00  1.1928785401293584e-02 -1.1919449263730921e-02 0.0000000000000000e+00  1.1939071226313984e-02 1.1945080841274432e-02 0.0000000000000000e+00  3.1116470194965544e-02 -2.2317919032422567e-02 0.0000000000000000e+00  0.0000000000000000e+00 0.0000000000000000e+00 0.0000000000000000e+00  1.3574579847120957e-01 3.9231420326495799e-02 0.0000000000000000e+00  1.1551282290335141e-01 8.0402580924779574e-02 0.0000000000000000e+00  0.0000000000000000e+00 0.0000000000000000e+00 0.0000000000000000e+00  6.6438903279701464e-02 9.9578487340899816e-02 0.0000000000000000e+00  0.0000000000000000e+00 0.0000000000000000e+00 0.0000000000000000e+00  -6.8068735042172687e-02 -1.3484819549669086e-01 0.0000000000000000e+00  2.8971996704674791e-02 -4.6899828683097868e-02 0.0000000000000000e+00  -1.5182004923933473e-01 1.2431937757012974e-01 0.0000000000000000e+00  -2.4214474342896691e-01 1.7526576638667657e-01 0.0000000000000000e+00  2.1206514334506210e-02 2.1705181614713995e-02 0.0000000000000000e+00  -3.8394561312924409e-02 1.1252054131799308e-02 0.0000000000000000e+00  2.4397714701397382e-02 3.8262043109767850e-02 0.0000000000000000e+00  3.4452730831047010e-02 1.4344121384113998e-01 0.0000000000000000e+00  -2.3018155930896313e-02 -3.0405659328262204e-02 0.0000000000000000e+00  -1.4370733273843561e-01 -1.3129277021816896e-01 0.0000000000000000e+00  7.9299300467027989e-02 -6.5776528379368482e-02 0.0000000000000000e+00  1.8873728080149854e-01 -2.2591646562414097e-01 0.0000000000000000e+00  1.2681860836182654e-01 -1.5172932144563400e-01 0.0000000000000000e+00  1.2583641189927641e-01 -8.3513448652226249e-02 0.0000000000000000e+00  0.0000000000000000e+00 0.0000000000000000e+00 0.0000000000000000e+00  2.3835273296442908e-01 2.0014959781464844e-01 0.0000000000000000e+00  3.9744230530229718e-03 -5.2115048216338007e-02 0.0000000000000000e+00  -3.3324089187141491e-02 -2.8298796392421530e-02 0.0000000000000000e+00  -3.1202903660363768e-02 3.6673392394626851e-02 0.0000000000000000e+00  0.0000000000000000e+00 0.0000000000000000e+00 0.0000000000000000e+00  -1.3004163396461138e-01 3.9180418885366011e-02 0.0000000000000000e+00  1.1048331501778787e-01 -3.6494705611258386e-02 0.0000000000000000e+00  -1.8646608999084452e-01 1.2499930486768807e-02 0.0000000000000000e+00  2.7189346822898506e-02 -1.5171406077554211e-01 0.0000000000000000e+00  -5.9701400492069241e-02 -6.2855781561293136e-02 0.0000000000000000e+00  -9.8865578040619115e-02 -4.1341798938187839e-02 0.0000000000000000e+00  -6.8433003424939159e-02 8.7659763565449592e-02 0.0000000000000000e+00  0.0000000000000000e+00 0.0000000000000000e+00 0.0000000000000000e+00  9.5208443425514544e-02 3.0121101315873372e-01 0.0000000000000000e+00  -7.3839760351294137e-02 -9.8894653391938925e-02 0.0000000000000000e+00  2.3490535561515282e-02 -2.3874125494214648e-02 0.0000000000000000e+00  -1.3672519013517608e-02 1.3667851223918863e-02 0.0000000000000000e+00  1.4376566388320043e-02 3.8166450004795613e-02 0.0000000000000000e+00  3.7772054376221331e-02 2.7063459581173458e-02 0.0000000000000000e+00  -2.2803827359353192e-02 -2.2250376876019280e-02 0.0000000000000000e+00  1.0304947044246265e-01 -3.0357477019633827e-01 0.0000000000000000e+00  -2.0197372031699485e-02 -3.9753869665565364e-02 0.0000000000000000e+00  -2.2481188617011369e-01 -2.2727555842951097e-01 0.0000000000000000e+00  -1.2038151554226290e-01 -2.9006286308381130e-01 0.0000000000000000e+00  2.9487837786010762e-01 -1.0837203826744932e-01 0.0000000000000000e+00  -8.5221572770829923e-02 -6.6496138561128085e-02 0.0000000000000000e+00  -6.4352773721584489e-02 6.1999753537085325e-02 0.0000000000000000e+00  1.4876947797611638e-02 -3.8048725343110684e-02 0.0000000000000000e+00  -4.0092273028220431e-02 9.4863389153336003e-02 0.0000000000000000e+00  2.0835745143584619e-01 -5.3826151016987650e-02 0.0000000000000000e+00  -3.5981021771267059e-02 -9.6675347398590100e-02 0.0000000000000000e+00  -2.0391182041614789e-02 3.8004600289659955e-02 0.0000000000000000e+00  0.0000000000000000e+00 0.0000000000000000e+00 0.0000000000000000e+00  -3.7901330456831306e-02 -2.0375819469769147e-02 0.0000000000000000e+00  -1.3144116353736293e-01 2.9365019806721149e-01 0.0000000000000000e+00  -6.3521519859678771e-02 -2.0264898883060284e-01 0.0000000000000000e+00  4.0282265007825266e-02 1.7635876859271454e-02 0.0000000000000000e+00  7.7843582204636788e-02 6.5780966262379434e-02 0.0000000000000000e+00  3.8704974875842180e-02 -1.8341047938590007e-02 0.0000000000000000e+00  -7.3032258266369249e-02 1.8193515594722665e-01 0.0000000000000000e+00  -1.1283345471414143e-01 1.3399651540583055e-01 0.0000000000000000e+00  2.4393366817956055e-03 -1.0395946726009837e-01 0.0000000000000000e+00  4.2572183933079020e-03 4.0037402482499811e-02 0.0000000000000000e+00  -4.1595777058908212e-02 1.1964867853143709e-03 0.0000000000000000e+00  -1.3868486358675411e-01 7.4779714893298571e-02 0.0000000000000000e+00  0.0000000000000000e+00 0.0000000000000000e+00 0.0000000000000000e+00  1.8585635149148374e-02 1.7717031940433316e-02 0.0000000000000000e+00  9.6431018760404344e-02 1.4503366845309332e-01 0.0000000000000000e+00  5.2049569375756728e-02 -1.2508728834265778e-01 0.0000000000000000e+00  4.3855516876837031e-02 4.6463104170461886e-02 0.0000000000000000e+00  0.0000000000000000e+00 0.0000000000000000e+00 0.0000000000000000e+00  0.0000000000000000e+00 0.0000000000000000e+00 0.0000000000000000e+00  0.0000000000000000e+00 0.0000000000000000e+00 0.0000000000000000e+00  0.0000000000000000e+00 0.0000000000000000e+00 0.0000000000000000e+00  0.0000000000000000e+00 0.0000000000000000e+00 0.0000000000000000e+00  0.0000000000000000e+00 0.0000000000000000e+00 0.0000000000000000e+00  0.0000000000000000e+00 0.0000000000000000e+00 0.0000000000000000e+00  0.0000000000000000e+00 0.0000000000000000e+00 0.0000000000000000e+00  0.0000000000000000e+00 0.0000000000000000e+00 0.0000000000000000e+00  0.0000000000000000e+00 0.0000000000000000e+00 0.0000000000000000e+00  0.0000000000000000e+00 0.0000000000000000e+00 0.0000000000000000e+00  0.0000000000000000e+00 0.0000000000000000e+00 0.0000000000000000e+00  0.0000000000000000e+00 0.0000000000000000e+00 0.0000000000000000e+00  0.0000000000000000e+00 0.0000000000000000e+00 0.0000000000000000e+00  0.0000000000000000e+00 0.0000000000000000e+00 0.0000000000000000e+00  0.0000000000000000e+00 0.0000000000000000e+00 0.0000000000000000e+00  0.0000000000000000e+00 0.0000000000000000e+00 0.0000000000000000e+00  0.0000000000000000e+00 0.0000000000000000e+00 0.0000000000000000e+00  0.0000000000000000e+00 0.0000000000000000e+00 0.0000000000000000e+00  0.0000000000000000e+00 0.0000000000000000e+00 0.0000000000000000e+00  0.0000000000000000e+00 0.0000000000000000e+00 0.0000000000000000e+00  0.0000000000000000e+00 0.0000000000000000e+00 0.0000000000000000e+00  3.1122020231418118e-01 1.1600610419389529e-01 0.0000000000000000e+00  -6.3481530915522638e-02 4.3489618099215123e-02 0.0000000000000000e+00  -4.1094714942187853e-02 3.9835571337293964e-02 0.0000000000000000e+00  2.3406482803797340e-02 2.6569429574388688e-02 0.0000000000000000e+00  6.5300542997712971e-02 7.4571212902716885e-02 0.0000000000000000e+00  1.0785935611997559e-01 9.9086047231247872e-03 0.0000000000000000e+00  2.1260146908946911e-02 -2.5783461198862143e-02 0.0000000000000000e+00  1.9007176723836899e-01 2.5538019695471630e-02 0.0000000000000000e+00  4.0027418521859551e-02 -4.1448109882472675e-02 0.0000000000000000e+00  6.5892868291033552e-02 -7.5867222075489738e-02 0.0000000000000000e+00  -1.6506803655616614e-02 -1.7384314116587422e-02 0.0000000000000000e+00  -1.0546756289377174e-01 -1.3709816128188154e-01 0.0000000000000000e+00  -2.5804758318950731e-02 2.3275374325476380e-02 0.0000000000000000e+00  1.5624623534073842e-01 2.2977515598030937e-01 0.0000000000000000e+00  4.1520455547396917e-03 1.8669529161977763e-01 0.0000000000000000e+00  1.7388536293066529e-02 -1.6450104515866176e-02 0.0000000000000000e+00  -2.7889647689576141e-01 8.7228197593539655e-02 0.0000000000000000e+00  -5.4230357250709994e-02 -6.6784006965746823e-02 0.0000000000000000e+00  -3.1466553519045248e-01 -1.1209733167238300e-01 0.0000000000000000e+00  -2.0886051330302477e-01 -5.3244587746845484e-02 0.0000000000000000e+00  8.5765174653417334e-02 -1.3985407967543767e-01 0.0000000000000000e+00  5.6039024345838899e-02 1.2141555317290882e-01 0.0000000000000000e+00  6.6009806360222661e-02 4.7470488318377455e-02 0.0000000000000000e+00  3.9555475625555628e-02 3.8422665934477671e-02 0.0000000000000000e+00  2.3582528858998742e-02 2.1963070942378059e-02 0.0000000000000000e+00  -3.2566261423883261e-02 1.7010125073473326e-02 0.0000000000000000e+00  -1.8731294783635690e-02 1.9573015438048617e-02 0.0000000000000000e+00  4.3967631613077783e-02 6.8286532605038350e-02 0.0000000000000000e+00  -1.9641713060460086e-02 1.8858374776106697e-02 0.0000000000000000e+00  1.4415588549148139e-01 -1.2098304455469834e-01 0.0000000000000000e+00  1.5324268328172300e-02 1.6275665556235584e-02 0.0000000000000000e+00  1.5202388746338194e-01 -6.4762851689893375e-02 0.0000000000000000e+00  3.8796475089948192e-02 -1.1460674639823174e-03 0.0000000000000000e+00  1.0145110622445433e-01 -1.2775040218185674e-02 0.0000000000000000e+00  -3.3806884050466301e-03 -3.0439471380499575e-02 0.0000000000000000e+00  1.4935912149994141e-01 1.1414471518383910e-01 0.0000000000000000e+00  6.1735554143081163e-02 -4.6656769256710258e-02 0.0000000000000000e+00  2.4019600549255796e-02 -2.1362066498496254e-02 0.0000000000000000e+00  4.0688755936063262e-02 -3.9460357758000490e-02 0.0000000000000000e+00  -4.2141575110207401e-03 3.1882995897107747e-02 0.0000000000000000e+00  1.474888389742611