<?xml version="1.0"?>
<VTKFile type="UnstructuredGrid"  version="0.1"  >
<UnstructuredGrid>
<Piece  NumberOfPoints="1109" NumberOfCells="1972">
<Points>
<DataArray  type="Float64"  NumberOfComponents="3"  format="ascii">1.771572962027156e-18 1 0  1.615773995612269e-18 1.647026518067424e-18 0  1 1.556264846404118e-18 0  1 1 0  0.8456998676662135 0.540159414997566 0  0.849780619947116 0.4999747815805486 0  0.8457575982905443 0.4598103874407825 0  0.8342423141953936 0.4216297397068308 0  0.8160070989185706 0.3866143630135324 0  0.7917857243897657 0.3542559576536056 0  0.7622432346884939 0.3219839948276645 0  0.7289985259256726 0.2882773355719018 0  0.6946415292832001 0.254046771555853 0  0.6616863383225764 0.2223545964999601 0  0.629711946537309 0.1953706848848873 0  0.5962009921552558 0.1740825527025649 0  0.5595566473998704 0.1590640493632856 0  0.5201453551225408 0.1513193409683198 0  0.4798821308949585 0.1512906663060039 0  0.4404415345870927 0.1590656689430519 0  0.4037942813744131 0.1740653882051729 0  0.3702050395081279 0.1954334868597995 0  0.3383337089388723 0.2223440524521997 0  0.3053890542082334 0.2539818029568753 0  0.2709886894244432 0.2882415085002728 0  0.2376298304204886 0.3220174743151531 0  0.2082415313764413 0.3543599166921946 0  0.184045977267918 0.3866776450054492 0  0.1657382383052031 0.4215771548952795 0  0.1542688759107606 0.4598711315788626 0  0.1502484844548743 0.4999132152672012 0  0.154175275998355 0.540135484394623 0  0.1657405996205186 0.5783547503371151 0  0.183974878650941 0.6133491980662351 0  0.2081902040306098 0.6457534611652377 0  0.2377629003028181 0.6780697998236519 0  0.2707257292447006 0.7119569255164415 0  0.3051131541242542 0.745983190001823 0  0.3383867495020377 0.7776480992076186 0  0.3702374716802521 0.8046474942686671 0  0.4038222147108753 0.8258952945656148 0  0.4404536742164176 0.8408707526371729 0  0.479853584610652 0.8486897658044077 0  0.5201244200468018 0.8487286191187942 0  0.5595623822075397 0.8409432936794052 0  0.59626695904494 0.8258990615896216 0  0.6297544478847557 0.8045959614230127 0  0.6617388159261804 0.7778028079859671 0  0.694870468090562 0.7460914556160428 0  0.7289822227031575 0.7119332807846754 0  0.7624337397234717 0.6781346290854169 0  0.7918664205006675 0.6457471623718574 0  0.8160418028873146 0.613348644147373 0  0.8342409635252044 0.5783645305256551 0  0.5 4.234911855310844e-18 0  0.5 1 0  3.773616355667699e-18 0.5 0  1 0.5 0  0.25 5.549557991288472e-18 0  0.75 2.154507528155752e-18 0  0.75 1 0  0.25 1 0  2.297100970840057e-18 0.75 0  1.487970949407275e-18 0.25 0  1 0.25 0  1 0.75 0  0.375 4.50232620336139e-19 0  0.625 4.714633108680853e-18 0  0.625 1 0  0.375 1 0  6.669918044817203e-18 0.625 0  6.225835529259379e-18 0.375 0  1 0.375 0  1 0.625 0  0.125 3.110000518585264e-18 0  0.875 2.94524042275897e-18 0  2.504738495949323e-18 0.875 0  0.125 1 0  0.875 1 0  2.013541003528911e-18 0.125 0  1 0.125 0  1 0.875 0  0.1741616055171273 0.1504775100138423 0  0.825810302897284 0.84940044367524 0  0.8258686950690536 0.1504445767081461 0  0.155533802304728 0.8444048642761678 0  0.9045433908136371 0.2105934390056665 0  0.1209061646747425 0.2374741258335516 0  0.8790744808539338 0.762647529562378 0  0.1199349120800762 0.7312384605566676 0  0.2476985303669449 0.8787471920835219 0  0.08277726973314707 0.08279593560486462 0  0.0625 1 0  1.082971753703155e-18 0.9375 0  1 0.0625 0  0.9375 3.79184771226918e-18 0  0.917160302778427 0.9172335290615559 0  0.7043546282515591 0.1100268498978852 0  0.2957143423051155 0.1100693320886391 0  0.7407697791502996 0.8812322907732699 0  1 0.6875 0  1 0.3125 0  0.09407318060163664 0.3176170051428402 0  6.991490316430928e-18 0.6875 0  0.1875 4.61287702320961e-18 0  0.8125 4.227214665057754e-18 0  0.8927974610803346 0.2936687681967516 0  0.3125 1 0  0.6875 1 0  0.9085089145580267 0.09148706080091037 0  0.8983852430898688 0.6916364559972779 0  6.306175438388181e-18 0.8125 0  0.08714444972043983 0.9128394856094021 0  0.07989675966171889 0.8251333116710796 0  0.8135446999419602 0.234129167116356 0  0.3141708387232084 0.8995445855904155 0  0.6519020116312044 0.9038734330478501 0  0.9035110472704877 0.8389451125009526 0  0.09656080511499691 0.1608847058937729 0  0.8125 1 0  0.08617519420462565 0.6403370057661368 0  0.909841423805428 0.3511876502139117 0  0.2282348916699624 0.792154440629216 0  0.6462098117864226 0.08543457905095465 0  0.3125 3.342313101576346e-18 0  0.3595708728214743 0.08563067707216057 0  0.2544990185102225 0.1664704767863743 0  0.7796064849460971 0.09348177361311238 0  0.1731713836475182 0.920145650746105 0  0.5625 1 0  0.4375 3.880605558123329e-18 0  0.4375 1 0  0.5625 4.536245400533382e-18 0  0.2054918929330669 0.08678968543819016 0  0.9096171747858238 0.626510277674367 0  0.7504472680207316 0.1781491745496532 0  0.809311823497921 0.9198992612318657 0  1 0.4375 0  3.416239063420199e-18 0.4375 0  1 0.5625 0  -4.78689857456298e-19 0.5625 0  6.022188756646379e-18 0.3125 0  1 0.8125 0  0.0625 2.248702788720932e-18 0  2.104662220109361e-18 0.0625 0  3.652396320756454e-18 0.1875 0  1 0.1875 0  1 0.9375 0  0.9375 1 0  0.6875 6.272134957065668e-18 0  0.1875 1 0  0.7670710594461192 0.7873525473896401 0  0.1979328667572053 0.2296379582063526 0  0.8463703318985017 0.0752633639650742 0  0.1888440905124605 0.7448512114995431 0  0.368883608071811 0.914078356126562 0  0.9192279156654999 0.4236970535055185 0  0.08080819755415469 0.5763844326614721 0  0.07627339877794245 0.4151237404112929 0  0.5852135877132763 0.07413216796843622 0  0.5995911876466132 0.9144235840315952 0  0.4116050962376764 0.07668075699612055 0  0.07203695841457758 0.6980609587396298 0  0.9278173396925031 0.5283781541410116 0  0.07218553791854757 0.4715825128438926 0  0.1541373152394241 0.2986453171193897 0  0.1451119944732739 0.0828738437676827 0  0.9261772317447724 0.5793558199094612 0  0.6824569655541537 0.8538935787101096 0  0.7116756981981982 0.9294497503725068 0  0.07188817686586489 0.3628909618040883 0  0.9285854707722094 0.1478789892622777 0  0.4190842289881522 0.9249770332055598 0  0.5362024401811455 0.07264689285972067 0  0.47136565011061 0.06792000592703747 0  0.4682817596990644 0.9301305227817207 0  0.5286176200216062 0.9320689770366611 0  0.8364026111386942 0.7050258187994939 0  0.8076701200391446 0.7492688312448217 0  0.05530460962422395 0.7671514648079248 0  0.716696884716632 0.8131975892064142 0  0.275514873843853 0.8121542719939164 0  0.05485330633534171 0.2327109041886624 0  0.9324546257929512 0.7443796644043718 0  0.9256272889111173 0.4746887528412815 0  0.07439624017965485 0.5253456048355256 0  0.859429370268343 0.9072538107534346 0  0.8305406435044075 0.2841542840825692 0  0.13697089896002 0.6614962062523514 0  0.767737928864374 0.9471478487609115 0  0.1285341103370161 0.7793241706877535 0  0.2030788530784302 0.8618461768143387 0  0.2324716534436155 0.9461591768643073 0  0.8492261382213582 0.8009449049003193 0  0.870566442758907 0.1755476121070733 0  0.9386044295111525 0.2451540755579985 0  0.9358084714695808 0.8020081090738517 0  0.2470945521050145 0.06292315418555143 0  0.3091735257841167 0.8413978913015508 0  0.7724125016291643 0.8462614654992328 0  0.7074742804803964 0.04828026958094914 0  0.2925176985036999 0.04827293622254779 0  0.7497005814675044 0.05931332776620336 0  0.8931182891819877 0.04445633494893285 0  0.04319201219768309 0.1670216338631726 0  0.149448398689965 0.1905790767307837 0  0.9426098841718398 0.306945189105909 0  0.1671058449444804 0.6897437863294378 0  0.9601540065998113 0.1019733710805455 0  0.2512442825969575 0.2319964721708722 0  0.0559584933815143 0.8759091396128647 0  0.1019538378336273 0.9599627557643047 0  0.1664431733941443 0.04098677659391253 0  0.8535594564907547 0.3453442303679087 0  0.7481572757939392 0.232694949446115 0  0.1055794523515939 0.04197916166113098 0  0.03896293580550583 0.1017181288875094 0  0.8911772613118839 0.9554088217054458 0  0.961111809144226 0.8983152796928662 0  0.1218089932366697 0.1233368834305927 0  0.9561518344813567 0.9561609151752242 0  3.716822090603796e-19 0.03125 0  0.03125 1.939965434633851e-18 0  0.9498431828803549 0.05014849951931024 0  0.04700357159896808 0.95303306614425 0  0.8687106308734592 0.6479273650527475 0  0.1727597628008505 0.7941911578140933 0  0.1744679251122572 0.2642873522838999 0  0.095095052798087 0.2754757437407415 0  0.28125 1 0  0.2755104637298342 0.9437821968978953 0  0.1057544592047647 0.8580196846377465 0  0.659293323440546 0.1356024335089127 0  0.704505400515121 0.1697474282872577 0  0.3418799946436191 0.1328511766607698 0  0.3007594114119778 0.168817041202153 0  0.8902116878770364 0.3928267230891172 0  0.7897690659350529 0.1930683253526103 0  3.030514291949978e-18 0.28125 0  0.1509716342067943 0.3362049378584768 0  0.6366326506614034 0.9488851062853174 0  0.2131826696614822 0.1895828039008692 0  0.8831399955014366 0.2556092609332874 0  0.9555235940676727 0.7126364742587411 0  0.93566050966653 0.6685163939381551 0  0.3681046513916177 0.8591484399607162 0  0.2482649618034829 0.114261593291959 0  0.04653929068784336 0.04651438320349453 0  0.5608580578432267 0.9039747554802781 0  0.1309275162516667 0.9167732703421323 0  0.1280525009444736 0.3873526363022801 0  0.9528031668700953 0.1800320799412615 0  0.8726382026075181 0.1292820447144619 0  0.7383634090715355 0.1242016331715958 0  0.9517830699278781 0.8561033884661129 0  0.84375 1.919098165969435e-18 0  0.8152261998036364 0.04964497271757733 0  0.4988687645123476 0.8972136668591727 0  0.4999990864603855 0.1048034690254919 0  0.8873631394968555 0.8769366414885674 0  0.7794087915208818 0.2766922918236951 0  0.07877402709194171 0.2041011732253359 0  0.84375 1 0  0.8489159333189508 0.9530291628938647 0  0.111833576371974 0.6026066709996656 0  0.05576991855910696 0.6159808148750575 0  0.4032923931452859 0.8809159670347674 0  0.59375 1 0  0.05136678973190397 0.2847966062325057 0  1 0.34375 0  0.9453926552841091 0.3727541763385245 0  0.2228860666774887 0.2729720333949308 0  0.3102895074260361 0.95068
[...]
<CellData  Scalars="dens"> 
<DataArray  type="Float64"  Name="dens"  format="ascii">7.5514040211947175e-01   7.5122354513966783e-01   7.5143043047338376e-01   7.4406484274767137e-01   7.1669304514892951e-01   7.5776421840368113e-01   7.6248185146132808e-01   8.1956633197518614e-01   7.8042965667668640e-01   7.2878827285348535e-01   7.4639276298448165e-01   7.9912180430503432e-01   7.5617577320218976e-01   7.6960413044703913e-01   7.8505792856690415e-01   7.6594976719699115e-01   7.5568305274195258e-01   7.1980847747423016e-01   7.2294246061851242e-01   8.1793083086984431e-01   7.8292955486197513e-01   7.6897350760979288e-01   7.5917334156356975e-01   7.2597182998958287e-01   7.8774700032509515e-01   7.6937066529208842e-01   7.6749236677862975e-01   8.1519725339533489e-01   7.2289427652238158e-01   7.7416859547173811e-01   7.5611951268442390e-01   7.5394749590581767e-01   7.2933485085556793e-01   7.6885121060547201e-01   7.8335013752435645e-01   7.9484221541313826e-01   7.3845309262910064e-01   7.2836791150358426e-01   7.6665745724966106e-01   7.7262529501755806e-01   8.1298916526024412e-01   7.3663363124513348e-01   8.2231006979110377e-01   7.3574947408771041e-01   7.5992816069947478e-01   7.3527805938900737e-01   7.4151176543367570e-01   7.1615836448447256e-01   7.7000620912586126e-01   7.5936085320961744e-01   7.6737445363296819e-01   7.4286117326488899e-01   7.4626025688716480e-01   7.7217233634030802e-01   7.6375719358953986e-01   7.6459573801583647e-01   7.7135153738557971e-01   7.2499418622973066e-01   7.5731162706694399e-01   7.6197473085601031e-01   7.5049488968180766e-01   7.6762799360706746e-01   8.1089230961342129e-01   8.2688296792612614e-01   8.0982126176814484e-01   7.3298947129703351e-01   7.9042572532179667e-01   8.5824798146317349e-01   7.5705057569977263e-01   8.0023197006098934e-01   7.7120145370616910e-01   7.7205508169390347e-01   8.0399742681284314e-01   7.5527284608686940e-01   7.7060808831114791e-01   7.6786142884022213e-01   7.7490080840832865e-01   7.5941598627150997e-01   7.5165669725031203e-01   7.5851275228754855e-01   7.3578105118710968e-01   7.7248886107075010e-01   7.5059206815139767e-01   7.6773687632473731e-01   7.7322050725457170e-01   7.4875427639773151e-01   7.5911783547060074e-01   7.6891940922541346e-01   7.6954095538042588e-01   7.5197472076478677e-01   8.4262437250201350e-01   7.5261251517944250e-01   7.6761211207806623e-01   7.4479264002147916e-01   7.4886186340955707e-01   7.4509610065142451e-01   7.9018154968841425e-01   7.8957802220394846e-01   7.8132559976165183e-01   7.3798397289812090e-01   7.7894201680216302e-01   7.6355657963042056e-01   7.4968048988389191e-01   7.5827654448022652e-01   7.8675846328001509e-01   7.9353637073139949e-01   8.0571244308976864e-01   7.3253266630507685e-01   7.1645919135522562e-01   7.8164020317024352e-01   7.5926370735295368e-01   8.5606309004567793e-01   7.7609360829481078e-01   7.1867789510698332e-01   7.3271703487611950e-01   7.4485729081760776e-01   7.8725065614575207e-01   7.6267726957826154e-01   7.3434245201794901e-01   7.2227370553124759e-01   7.6339076154949648e-01   7.3537005545770429e-01   7.3871587737457423e-01   7.3711722628896803e-01   7.5586016709859205e-01   7.5416125877866869e-01   7.4897779725915048e-01   7.5884424688668617e-01   7.3194751070699504e-01   7.1973862474235173e-01   7.5716350097237339e-01   8.4015717999735728e-01   7.2965284486020376e-01   7.3904165922129716e-01   7.7826275014463342e-01   7.6970632829411456e-01   8.0524646364869701e-01   7.7507590922475500e-01   7.6523776802984822e-01   7.6898485846592424e-01   7.6635023575384043e-01   7.7764256539161158e-01   6.9056607985258545e-01   7.6007080652112324e-01   7.1803584319004887e-01   7.2180056719843766e-01   7.3512651027698761e-01   7.8947628275703419e-01   7.3435115402738316e-01   7.4171854905681045e-01   7.6007229216485028e-01   7.1382193402758076e-01   7.3251559870410454e-01   7.1425032220571716e-01   7.5246285007888358e-01   7.4072682224899933e-01   7.5096606492072393e-01   7.9380009790230777e-01   7.5379742606423983e-01   7.3789520154036514e-01   7.2359460030012890e-01   6.8225670259790361e-01   7.5835666034523475e-01   7.1024914992372423e-01   7.0411670818808991e-01   7.4614211058070812e-01   7.6527073051562911e-01   7.4453292921658742e-01   7.0295938719183215e-01   7.2300391079075799e-01   7.6900088282705137e-01   7.2421397968670309e-01   7.4370574921938626e-01   7.5456472868101143e-01   7.5406426337589838e-01   7.9737498053240785e-01   7.5380987651433606e-01   7.4036239749951338e-01   7.4840503469357278e-01   7.5273293207999648e-01   7.6535248514688980e-01   7.3715158029729322e-01   7.2147756988872680e-01   7.4420264607118936e-01   7.2067688571070720e-01   7.4073222187185728e-01   7.5635639241590724e-01   7.6234342320264881e-01   7.5967723579976043e-01   7.5464966078465801e-01   7.6008688132115121e-01   7.5080123281094979e-01   7.6044562202889920e-01   6.9957354408005246e-01   7.5433932178005403e-01   7.2158726319734967e-01   7.8098585031326651e-01   7.4046175642933876e-01   7.6333847723788040e-01   8.2028054110020276e-01   7.4670863212508920e-01   7.5772489460384462e-01   7.7331561964587281e-01   7.4288057927331264e-01   7.5440885897203136e-01   7.5725869268151702e-01   7.6051827249624704e-01   7.5445361655110721e-01   7.5000772327421894e-01   7.5552257131474143e-01   7.3365834100181393e-01   7.3058971814192186e-01   7.7170215233483819e-01   7.6238587983533246e-01   7.5922439894460025e-01   7.6069488007041297e-01   7.8708347301807491e-01   8.3733573242319848e-01   7.5736008334713201e-01   7.4035123566866101e-01   7.6415814081395328e-01   7.6296590906294570e-01   7.5801345268212106e-01   7.5973799185271795e-01   7.6010273777237669e-01   7.5507184035732922e-01   7.9529948313288767e-01   7.7583317759137749e-01   7.4791735736329601e-01   7.4915006343274848e-01   7.4779270657396990e-01   8.4286456248231922e-01   7.6376683298257875e-01   7.5809329884549392e-01   7.9187255150729841e-01   7.2545000123390513e-01   7.2736971963023811e-01   8.1430086056124840e-01   8.1202183713898768e-01   7.5875282851833614e-01   7.9422049947989948e-01   7.8090785304370625e-01   7.8047449014110559e-01   7.0952954037929405e-01   7.3976705749838911e-01   7.7923127721358909e-01   7.6932063743636414e-01   7.7174170351600702e-01   7.9791038075843168e-01   8.6689573279867638e-01   7.6939354226590684e-01   7.6483030853842093e-01   7.7921567365028133e-01   7.9381842680825043e-01   8.3514205841432054e-01   8.6361673966837327e-01   8.1942652083386125e-01   8.1482084839668045e-01   8.4623519561780880e-01   7.8636772659444010e-01   7.2685419438443222e-01   7.2801469175110411e-01   7.2435487937271004e-01   7.4759832030344320e-01   7.6246485832491251e-01   7.6028269263777981e-01   7.8350334121120691e-01   7.2224828413724518e-01   7.6015398259689204e-01   7.3964250464876447e-01   7.4256694999053752e-01   7.6272788393500157e-01   8.0198963530816936e-01   7.5954562050082297e-01   7.7465106209381118e-01   7.3007684917413440e-01   7.8000856053418988e-01   8.5587433666467427e-01   7.7767743376072296e-01   7.3209966095022083e-01   7.2948781156274101e-01   7.0843966521605051e-01   7.3080878907100766e-01   8.1249843875652683e-01   7.7595537735180098e-01   7.4153250905936641e-01   7.3117347427776891e-01   7.4740887902852116e-01   7.5069842045621193e-01   7.5072038930547202e-01   7.2534496542413363e-01   8.0592553748857798e-01   7.5115240935662575e-01   7.5988851864632811e-01   8.2519231326640008e-01   8.4281009557093334e-01   7.9390277951764232e-01   7.4544607079527125e-01   7.5523409438652578e-01   8.1749076852078895e-01   7.6523598500456935e-01   7.5931215163773891e-01   7.4806345992563950e-01   7.6872921913019088e-01   7.6026383592113911e-01   7.6348682136714019e-01   8.0748106855992008e-01   7.7241349533047521e-01   7.6193775394344621e-01   7.7798891240947299e-01   7.6485112513688724e-01   7.6743441340963914e-01   7.6126761159267253e-01   7.5614768352622364e-01   7.5840222884217812e-01   7.5840947569306916e-01   7.8519145030925874e-01   7.8076717112026650e-01   7.4589129870498405e-01   7.6837214560071920e-01   7.8347707691943591e-01   8.1369400442491280e-01   7.6021237495458027e-01   7.7541210857196174e-01   7.8508876038671582e-01   7.3413199751882507e-01   7.8288453921608736e-01   8.1690562089525454e-01   7.1725305102177306e-01   7.1864197748238789e-01   7.5276076004141945e-01   7.7261930982404758e-01   7.8643938950580983e-01   7.1090363983197502e-01   7.2920065469227957e-01   7.3335018338233726e-01   7.1537691556840366e-01   7.2753060610646336e-01   7.2225652025041520e-01   7.4002100840514362e-01   7.5953201240644630e-01   7.5789154988008456e-01   7.6055452914351596e-01   7.5250432238510601e-01   8.5793759985127005e-01   8.1128267354957262e-01   7.3492093998925934e-01   8.1594913518387557e-01   7.2198788554522042e-01   7.4639265457234183e-01   7.6651227326145299e-01   7.5560908505821622e-01   7.3582989408916788e-01   7.4128205678761916e-01   7.1604098610528955e-01   7.7873105361552897e-01   7.6286717664053927e-01   7.4370738945709292e-01   7.6301655041939809e-01   7.3903458273290801e-01   7.9485032559570701e-01   7.5229440613812304e-01   7.4663744418886380e-01   7.9238785235188125e-01   7.9303538574460664e-01   8.1630011591203244e-01   7.8051058909742921e-01   7.9706812862875209e-01   7.7758306630681939e-01   7.3996195608244786e-01   7.5203410232092727e-01   7.8325124667066093e-01   7.4997817097930097e-01   7.1308236035187900e-01   7.1797595979869766e-01   7.4351753600141579e-01   7.6532918646439363e-01   7.8478212536310565e-01   8.0271328543031317e-01   8.5412757307764586e-01   7.8212681060338218e-01   7.8284284212152278e-01   8.1457934860624015e-01   7.4056879875127590e-01   7.4073863874541868e-01   8.1672318526545939e-01   7.8645529671911718e-01   7.0268473817691779e-01   6.7647729311344396e-01   7.9696666290368134e-01   8.2672147026472820e-01   8.1038897682196287e-01   7.2995652870958694e-01   7.1650047216711332e-01   7.0551024179007693e-01   7.8186924370246502e-01   7.4113761079983975e-01   7.5976781546348582e-01   7.4196535277346409e-01   7.5688214378850149e-01   7.3091571685635703e-01   7.4773165969925581e-01   7.5532286831172357e-01   7.5481802966616529e-01   7.5001924125928354e-01   7.6475791484276878e-01   7.6232963278959953e-01   7.6357325098100592e-01   7.3140756554331388e-01   7.1085988414877299e-01   6.7566230212108047e-01   6.7608160558342290e-01   7.4663256720005400e-01   7.4502847794625393e-01   8.4504968862382945e-01   8.0680826915180259e-01   7.3629055659879128e-01   6.9972193617407119e-01   7.3057423878643535e-01   7.1272334179502528e-01   7.5423115848469102e-01   7.4177029750932633e-01   7.7846367195705124e-01   8.2141591384694812e-01   6.8807883616938292e-01   7.4860378523406501e-01   7.1989311555489854e-01   7.7015430791101214e-01   7.7383900283966978e-01   7.5624912024704183e-01   7.3555283528245163e-01   7.4348410097387196e-01   7.4184984297964363e-01   7.6582411436155240e-01   7.2075591054520116e-01   7.3762771633815494e-01   6.9128532113836927e-01   8.1749434208318006e-01   7.2949658468704237e-01   7.3186977140147813e-01   7.5755636598254739e-01   7.6455706401770418e-01   7.7066739561443143e-01   7.6639135549266824e-01   8.1494803360949031e-01   6.7675875446926526e-01   7.9948202053506723e-01   7.5868999952607641e-01   7.3984116743260286e-01   7.9695188651580229e-01   7.8098955594925923e-01   7.7663396627902348e-01   7.7860769608041691e-01   7.1776457652152770e-01   7.2108603792631187e-01   7.2032485753209041e-01   7.3099524478695577e-01   7.2801619925790262e-01   7.3877206932371442e-01   7.2950966694591346e-01   7.7490826093369891e-01   7.7220702957792331e-01   7.4830140532526102e-01   7.5194552812776871e-01   7.3828033873713161e-01   7.1694564416352247e-01   7.3227137107064011e-01   7.3091985840427331e-01   7.8519927967092884e-01   7.8516714574115221e-01   7.6580098365791371e-01   7.3673072063961242e-01   7.2360333367874874e-01   7.4193636941969054e-01   7.5815634087245465e-01   7.4598845102288880e-01   7.5962856738850437e-01   7.6113786125900151e-01   6.9834924829432621e-01   7.1153793770700158e-01   6.8307624114796328e-01   8.5622813346515725e-01   7.8835322193497270e-01   8.5861891280434099e-01   7.4096520378117892e-01   7.2357724642523402e-01   7.4964269399037720e-01   7.4822531032957973e-01   7.7942377931471496e-01   7.7111071321774960e-01   7.5578045716535391e-01   7.5235259266438437e-01   7.5219371625895715e-01   7.4892950669481717e-01   7.7972763516212473e-01   7.3666477771375660e-01   7.7926467421797474e-01   7.6296617148007306e-01   7.4903182414641523e-01   7.5757462889212746e-01   7.5309351317306161e-01   7.3568493952385539e-01   7.4964197933799970e-01   7.8070067094141482e-01   7.7454596356227201e-01   7.8306129546095460e-01   7.6276553727825802e-01   6.9034757980242445e-01   7.2940144120076600e-01   7.4074113310177381e-01   7.1407540018437865e-01   7.6804656582500241e-01   8.1828798306515371e-01   8.0436653128527291e-01   7.9105088329240769e-01   7.6398206009112080e-01   7.3991379129656321e-01   7.5582422711879782e-01   7.5466684793922922e-01   7.1109122355788645e-01   7.3612956284066056e-01   7.5154604087282151e-01   7.5616889729351355e-01   7.4501165942451020e-01   7.1334430990036646e-01   6.7547529154995423e-01   7.4872951852389680e-01   7.5329274649141420e-01   7.1623143714669457e-01   7.3915531560404257e-01   7.2340881782780841e-01   7.2851872886210278e-01   7.3206436015968235e-01   7.2996585168736894e-01   7.7456869761060743e-01   7.9125224328418986e-01   7.5732335881288859e-01   7.8398107035882481e-01   7.9410318613685160e-01   7.5989292756234850e-01   7.6051650840492491e-01   7.7082617274251841e-01   7.1928252472596588e-01   7.1055526330793384e-01   8.1021760430312417e-01   8.0766047915188299e-01   8.0524902525010267e-01   8.4317647473832358e-01   8.4082711332263782e-01   8.6415838359362429e-01   8.0496289094594908e-01   8.1327848234746314e-01   7.8683428202235628e-01   8.3131024102925355e-01   7.7129024967996163e-01   7.9700458936849439e-01   8.0722056423186173e-01   7.9357887916323411e-01   7.8882919793071049e-01   8.1102218691968264e-01   8.0773533856059732e-01   8.1584873423121629e-01   7.2189878570362631e-01   7.0964872854147687e-01   7.4849745610683716e-01   7.5193493571381254e-01   7.6212695274532294e-01   7.4074368430823834e-01   7.7684818238510223e-01   7.6357063622927712e-01   7.3306099392742485e-01   7.1273442734395287e-01   8.0730663436009176e-01   8.1425847808559348e-01   7.8009918339369733e-01   7.6683895650239575e-01   7.6205653197658096e-01   7.4919969257528585e-01   7.5759845364237177e-01   7.7103293404396211e-01   6.9853699682374149e-01   7.1528317247947892e-01   7.1381363421549693e-01   7.2258236000002773e-01   6.8265966176269144e-01   6.7664540993264355e-01   6.9885544859477899e-01   7.3178241015067524e-01   7.3329403437787144e-01   7.1355448339534311e-01   7.3652011176902921e-01   7.1345574416361035e-01   6.8374195391834958e-01   7.1079222843997725e-01   7.2464360921509785e-01   7.0893416407518628e-01   7.9140444552933176e-01   8.2747654195793807e-01   8.1081805626407433e-01   8.2861405220711037e-01   8.4822558308583307e-01   8.2374933738950051e-01   9.0500249111685294e-01   9.0467026596078914e-01   8.6747958339796172e-01   8.4465189045093225e-01   7.4186809554807298e-01   7.1171926448960920e-01   7.7790503783808718e-01   7.9533390349343480e-01   7.6073703348946686e-01   7.6456477196418082e-01   7.2807488394552866e-01   7.7615350246846426e-01   7.8624516126060862e-01   7.8855432566301542e-01   8.3638223451506954e-01   7.5868231591363211e-01   7.5225189007615767e-01   7.6213443357555632e-01   7.5335818486732131e-01   7.6367113633493677e-01   7.6489076844256398e-01   7.9692892889499234e-01   7.6818494950534166e-01   6.8414043105878819e-01   7.1211284830360277e-01   7.4213943202207666e-01   7.1820234148482565e-01   7.0300383213622109e-01   7.2684467751628734e-01   7.9369190692876845e-01   7.9240163811649356e-01   7.7434157140756166e-01   7.6424876964898703e-01   7.5684466928217886e-01   7.5362770775184451e-01   7.6386580836938411e-01   8.3209464274494038e-01   7.5720523032479392e-01   7.2065491951572935e-01   7.1599515626236865e-01   8.1849105878722506e-01   7.4158294180936291e-01   7.6988126347263230e-01   6.7531728972191996e-01   7.0494951938765371e-01   7.7936885136714829e-01   6.7507188920162131e-01   7.0464396103326754e-01   7.9186915192041352e-01   7.9982004612345836e-01   7.9313312814289594e-01   8.1436197881514882e-01   7.7957887393119318e-01   7.6298336627701047e-01   7.5232781958665540e-01   7.8370087496706364e-01   7.7398321465687903e-01   7.1317767797554876e-01   8.3801012934666874e-01   8.1738160312489438e-01   8.0751446707585650e-01   7.8295566098353409e-01   7.3543433289755455e-01   7.5497511883339674e-01   8.2031217764107978e-01   7.8037219482539011e-01   7.9349839691447510e-01   7.3592522310025721e-01   7.8278954519806010e-01   8.3654506490697755e-01   7.7418572398772911e-01   7.5988795471738324e-01   7.9139373749896025e-01   7.8430945727536505e-01   8.3382404200278815e-01   8.1323439574610767e-01   8.4674993497544082e-01   7.4809271099394103e-01   7.3987042322866114e-01   8.6079776000845487e-01   8.2169445614392234e-01   7.3686582008710078e-01   7.4529095720712724e-01   7.3098234086691738e-01   7.7072318501391857e-01   7.6619900923515905e-01   7.4526807380770177e-01   7.9557666086658507e-01   8.5181546355980409e-01   7.2415369447767619e-01   7.2869942587567815e-01   7.6610095716717352e-01   7.4300897399668508e-01   7.7820302876519298e-01   7.3086812730811568e-01   7.4019583115217003e-01   7.3741955782365110e-01   7.2554465192881035e-01   7.9236504100609995e-01   7.6686838674013280e-01   8.0591805390926630e-01   7.8541113437376042e-01   7.9579455317291958e-01   7.9219867085565465e-01   7.4165834515436213e-01   7.7429051860196463e-01   6.9301634180513105e-01   7.1116791341575647e-01   7.5207168024341597e-01   7.5747804716651179e-01   8.0975461790700043e-01   7.5707704306122747e-01   7.7313691669583640e-01   6.8462704596787882e-01   7.2232361984639593e-01   7.9279420145627721e-01   8.3325090330427964e-01   8.1386123500547980e-01   8.5460898828536491e-01   7.4076445668868496e-01   7.2759781771402809e-01   7.1572254985395334e-01   7.3059788264777725e-01   8.0524801123909129e-01   7.6519519481086651e-01   7.7161727568449234e-01   7.8006530225320136e-01   7.7535506073503124e-01   7.7391660864353384e-01   7.7522286026890774e-01   7.6407036405310058e-01   7.7841578660414412e-01   7.6270543701992777e-01   7.4465066183513429e-01   7.3950911623936633e-01   7.6356850797806175e-01   7.6892060058327627e-01   7.5381780435429169e-01   7.5795490310466695e-01   7.8221245012298468e-01   7.5698991876439292e-01   7.6116487266918387e-01   8.5727312212981444e-01   8.1574566433742501e-01   8.2178416537763999e-01   8.0161107424688471e-01   7.5610617773540911e-01   7.4259127156329929e-01   7.7514377598573259e-01   7.6995360358863685e-01   7.5736388556625411e-01   7.5146448784732001e-01   7.6031620237490993e-01   7.4762877847899545e-01   7.3068496195512078e-01   7.5756028302535416e-01   7.5704581522220460e-01   7.5192901758473296e-01   7.3359967378917679e-01   7.1215909655896670e-01   7.4690077966094492e-01   7.6346400411512261e-01   7.6819473530493909e-01   7.5892390086211092e-01   7.2409107154067287e-01   7.3761508267055065e-01   8.4784262114549347e-01   7.0448378018669289e-01   7.0361566141364940e-01   7.5537553769334465e-01   8.2156089847631497e-01   7.5136093363374568e-01   7.6124403543277908e-01   7.8015829315524665e-01   8.1573034042716142e-01   7.9152534498626159e-01   8.3821393430943814e-01   7.5177039234238729e-01   7.6084102626714745e-01   7.2387945446650170e-01   7.2775878889843659e-01   8.2878733412749228e-01   8.1530942382690230e-01   7.5483934065941749e-01   7.8237547264006602e-01   7.6237202462361520e-01   7.2393294950419440e-01   7.2144516407098147e-01   7.4970279946976004e-01   7.6098119930087627e-01   7.3640966851582201e-01   7.2142069456233515e-01   7.7726798444519785e-01   7.5574133349069350e-01   8.57911769381190