<?xml version="1.0"?>
<VTKFile type="UnstructuredGrid"  version="0.1"  >
<UnstructuredGrid>
<Piece  NumberOfPoints="1109" NumberOfCells="1972">
<Points>
<DataArray  type="Float64"  NumberOfComponents="3"  format="ascii">4.428932405067891e-19 1 0  1.086636396911857e-18 1.014103726685487e-18 0  1 1.333941296917816e-18 0  1 1 0  0.8679213914340682 0.5439077141726413 0  0.8714775475338931 0.4999561356703516 0  0.8679843524470119 0.4561126823260441 0  0.8578597153945416 0.4133553822497246 0  0.8415350224486657 0.3723384125236842 0  0.8192715574132541 0.3329757665151477 0  0.791537309670543 0.2947996643225038 0  0.7592752062496068 0.258209152177543 0  0.7237101231158165 0.2240940929990412 0  0.6862339781462066 0.1939475286564706 0  0.6474757804241161 0.1688645801444461 0  0.6073174338405128 0.1495368444493016 0  0.5653851440744011 0.1362379815960637 0  0.5219598393617235 0.1294762622591619 0  0.4780293968526318 0.1294487553263269 0  0.4345834062007023 0.1362369192327577 0  0.3926661401984873 0.1495297351368441 0  0.3524693562731475 0.1689122645765815 0  0.3137641952028632 0.1939377572508616 0  0.2763102648165854 0.2240639638845946 0  0.2407157066755938 0.2581962190441496 0  0.2084002556259901 0.2948444857367232 0  0.1807522593792251 0.333024262272488 0  0.1585058014342178 0.3724038284929851 0  0.1421148158911799 0.413316656739505 0  0.1320429910842543 0.456137390053618 0  0.1285507988848223 0.4999242798837858 0  0.131967725036692 0.5438591278625036 0  0.1421247326384714 0.5866626404942643 0  0.1584549125370198 0.6276260094231008 0  0.1807116871312383 0.6670351725289358 0  0.2084621252437655 0.7052147934138375 0  0.2406048253139241 0.741881317114771 0  0.2761867413819286 0.7759264336993007 0  0.3138108715851966 0.8060501036933744 0  0.3525110820754629 0.8311462622255087 0  0.3926948734960347 0.8504509693574288 0  0.4346009961953136 0.8637023575521228 0  0.4780058146128146 0.8705294007510821 0  0.5219368989976392 0.870559679022785 0  0.5654111059660634 0.8637620708324631 0  0.6073795844943602 0.850445522728872 0  0.6475198572705454 0.8311174015872627 0  0.6862143926888373 0.8061459259034375 0  0.7237956149828723 0.7759780105603502 0  0.7592583083775257 0.7418742120757826 0  0.7916376114670559 0.705226471330512 0  0.8193146991303776 0.6670192728168898 0  0.8415511221044977 0.6276537901461456 0  0.857875179241711 0.5866453721279915 0  8.311503603145136e-19 0.5 0  1 0.5 0  0.5 3.079935894771523e-18 0  0.5 1 0  2.554414066495966e-18 0.75 0  2.79116326285438e-18 0.25 0  1 0.25 0  1 0.75 0  0.75 1.998381067496667e-18 0  0.25 1.958667526337108e-18 0  0.25 1 0  0.75 1 0  3.705510024898446e-18 0.625 0  1.867750658777814e-18 0.375 0  1 0.375 0  1 0.625 0  0.625 3.373774151166115e-18 0  0.375 1.125581550840348e-18 0  0.375 1 0  0.625 1 0  0.125 1.94375032411579e-18 0  0.875 2.94524042275897e-18 0  1 0.125 0  5.400261624321635e-19 0.875 0  0.125 1 0  0.875 1 0  1.680898382601383e-18 0.125 0  1 0.875 0  0.1596593636497982 0.1363494423331818 0  0.8403272201850978 0.8635848119995879 0  0.8403560489253398 0.1363326936606402 0  0.1419185234199677 0.8580503070257008 0  0.9148331635448752 0.1994702351330015 0  0.1073012872002776 0.223459137553177 0  0.892690861867985 0.776597634541067 0  0.1056158041696035 0.7449649625390221 0  0.2336288660036637 0.8926370924272832 0  0.07696045515980886 0.07696530618454311 0  1 0.0625 0  0.9375 1.388863557606594e-18 0  0.0625 1 0  1.089751626952549e-18 0.9375 0  0.9230046938779936 0.9230433610716228 0  0.716326252054416 0.09626350512404942 0  0.283705886237372 0.09628965400108812 0  0.7545128727107581 0.895155388589263 0  1 0.6875 0  1 0.3125 0  0.08182354092906734 0.3083398255481879 0  2.403324796273132e-18 0.6875 0  0.1875 2.306438511604805e-18 0  0.8125 2.536328799034652e-18 0  0.906174946466148 0.2819895062513412 0  0.6875 1 0  0.3125 1 0  0.9151387876468378 0.08485968365150424 0  0.9113776677999021 0.7021719070385652 0  1.062801714482158e-18 0.8125 0  0.08088500403127837 0.9191077191530521 0  0.07192934053558436 0.8341808066976879 0  0.8334683883322032 0.2140888317003032 0  0.6600341321036575 0.9168528964992556 0  0.3040283788588389 0.9125091817610118 0  0.9127016690824655 0.8491101242503231 0  0.08732532206360516 0.1507915414294804 0  0.8125 1 0  0.07437789589571049 0.6469404862225104 0  0.9220515598160279 0.3437698199154516 0  0.2068163575585646 0.8135655742994125 0  0.6530447673876456 0.07381042333141118 0  0.3125 1.934630994379216e-18 0  0.3529889811771839 0.07391016949023547 0  0.2356438977002537 0.1475916762652999 0  0.7905654920885422 0.08321057452368498 0  0.1641635417795158 0.9280806525805197 0  0.5625 1 0  0.4375 4.233387881589087e-18 0  0.4375 1 0  0.5625 2.268122700266691e-18 0  0.1953669090968593 0.07748961856806752 0  0.9221362652629121 0.6328057174220437 0  0.7703066747409187 0.1583341978226296 0  0.8186340874742344 0.9282243970751298 0  1 0.4375 0  2.244000169109347e-18 0.4375 0  1 0.5625 0  3.999865725503364e-18 0.5625 0  2.046585787648578e-18 0.3125 0  1 0.8125 0  0.0625 8.003162350219097e-19 0  7.21202210515234e-19 0.0625 0  1.515355920313848e-18 0.1875 0  1 0.1875 0  1 0.9375 0  0.9375 1 0  0.6875 4.284128855791597e-18 0  0.1875 1 0  0.7891973489666855 0.8094221995678673 0  0.1772072506317253 0.2088096454216518 0  0.854592487568185 0.0681318563411252 0  0.1677283347597127 0.765939942686781 0  0.3627203454930005 0.9259443109794314 0  0.9307640043977603 0.4204608640618813 0  0.0692642910569778 0.5795954256248262 0  0.06541031862751699 0.4117347288400399 0  0.5884726070341812 0.06356676814247259 0  0.6041666314162067 0.9265124291519925 0  0.4080852678291989 0.06577321294507808 0  0.06282581403195085 0.7054317126676143 0  0.9382320356816107 0.5294137002979835 0  0.06176417936407471 0.47055973744415 0  0.135125590015811 0.2814193375584589 0  0.1365388820535338 0.07525269459687212 0  0.9367164344771914 0.5823529922551505 0  0.6980337565269437 0.8725630671530166 0  0.7192059983221214 0.9383192153181221 0  0.0619945285822991 0.3576630464517974 0  0.9352511019474968 0.1401200097726727 0  0.4159651350359463 0.9356803518007821 0  0.5375474478158013 0.06216969428965735 0  0.4704290033337989 0.05811614456415021 0  0.4671980636334307 0.9402162694332643 0  0.52957861858287 0.9418672513365528 0  0.8563986382446016 0.7234901043603073 0  0.8289305761736064 0.7705235983116763 0  0.0489491336308125 0.7737385356245573 0  0.7380243883242286 0.8353316070088797 0  0.2541525224112142 0.8340515685909041 0  0.04853759932192298 0.2261874795953173 0  0.9404848947007391 0.7521799284343499 0  0.9363719194868438 0.4737630629368133 0  0.06365205562169995 0.5262526447669745 0  0.868603240541544 0.9156159419781849 0  0.850839348142778 0.264843196858421 0  0.1188845324235617 0.6747184341036818 0  0.7740367991305935 0.9532218681751338 0  0.1146520250143009 0.7938740786679019 0  0.1881567967869525 0.8760745370646174 0  0.2260703251983631 0.9523530235598525 0  0.8644552061534573 0.8167028542622057 0  0.8830251725844296 0.1623678852593279 0  0.9457889796177437 0.2379588363902047 0  0.9426520380751983 0.8096693223289142 0  0.2397367838446813 0.05553594659799379 0  0.2916992700113196 0.8612928317427124 0  0.7894240117828557 0.8628340504968159 0  0.7124349164750665 0.04214087449029081 0  0.2875653041517815 0.04213602769089389 0  0.7565837686822323 0.05229378114154817 0  0.8976541836249355 0.0407460794420746 0  0.03886184885614309 0.1618160332934384 0  0.1346642023735797 0.1752283328843287 0  0.9500535682647572 0.3013278695062599 0  0.146184270337951 0.7082156438021522 0  0.9634270598523886 0.09792058316143615 0  0.2266539193075306 0.2073647872782869 0  0.05105962378664759 0.8817769526349234 0  0.09791306600635752 0.9632469820906705 0  0.1615083354947587 0.03690066638624142 0  0.8730104034477149 0.3314516739344656 0  0.7728249614380863 0.2079418138835546 0  0.1012983433089027 0.03848513154240601 0  0.03576188942120085 0.0977898174534884 0  0.8957247467556602 0.9591685517975355 0  0.9642786408295653 0.9022124739693518 0  0.1119508881667147 0.1134174661512873 0  0.9586627200964634 0.9586686922016872 0  7.898246942533067e-19 0.03125 0  0.03125 9.268723743250623e-19 0  0.0442763077338086 0.9557344067410377 0  0.9528065637584701 0.04719198038916272 0  0.8863860316129879 0.6596223682527863 0  0.1553848699448361 0.8118848412711741 0  0.1543925895713001 0.2445248504048222 0  0.08351168999229241 0.2647621766617314 0  0.28125 1 0  0.2693508993975485 0.9507341629772563 0  0.0963494392040679 0.8680054284632637 0  0.6722135192826113 0.1176249040760729 0  0.7237326722686368 0.1490070494574937 0  0.3293383972164696 0.1152181992835625 0  0.2817564281080703 0.1480275380163302 0  0.9056362662820312 0.3861288154245158 0  0.8090570413082172 0.1738732357266304 0  2.489599318841075e-18 0.28125 0  0.1311748876977849 0.3210938238770718 0  0.6401632754762432 0.9559417094172247 0  0.1939335076457904 0.1704936408023027 0  0.8967702500246698 0.2420516296819102 0  0.9611470026944293 0.7172707985981343 0  0.9442255263436744 0.6741836337117773 0  0.3566726784355774 0.8784404865869117 0  0.2349801469315394 0.1011079847038854 0  0.04384073894287435 0.04382427883300428 0  0.5639840223335053 0.917760976475045 0  0.1228188894456247 0.9240797407629835 0  0.1101709870251624 0.3787710375957621 0  0.9576599770156972 0.1743615366694347 0  0.8831072920123677 0.1187810177935844 0  0.7527093151402734 0.1095875731662814 0  0.9563039657317978 0.8615965796280752 0  0.84375 2.522323996244568e-18 0  0.8211820500658991 0.04448220667659128 0  0.4987934356231339 0.9120663996370291 0  0.4999800898603892 0.08965725625600068 0  0.8965915324168108 0.8863710658672505 0  0.8045685859689342 0.2520265288811648 0  0.07032520873961287 0.1947893800161474 0  0.84375 1 0  0.8543603266230103 0.9575251093012633 0  0.09606922361281614 0.6091816237781388 0  0.04796117637036756 0.6192713033155394 0  0.3965744449231042 0.8977521558945998 0  0.59375 1 0  0.04492003418245744 0.2793595786489723 0  1 0.34375 0  0.9529824759002816 0.369218084061031 0  0.1976911611531204 0.2481100278254045 0  0.
[...]
<CellData  Scalars="dens"> 
<DataArray  type="Float64"  Name="dens"  format="ascii">8.7459344842188880e-01   8.5664381605554629e-01   8.3997950453944437e-01   8.4493643331633683e-01   8.3793906524962514e-01   8.1615130868872321e-01   8.4458856938845273e-01   8.5511675451047897e-01   8.4783910210863234e-01   8.3007987860778532e-01   8.3757156237504715e-01   8.5910871354974716e-01   8.3921863576849276e-01   8.3501988644269387e-01   8.5263378334627893e-01   8.4534978480373923e-01   8.4538290536936833e-01   8.2018028992976966e-01   8.7402441837389488e-01   8.5417931974839156e-01   8.5917924037021376e-01   8.4808897365514857e-01   8.3523908325239293e-01   8.5417322358453818e-01   8.4547278518958835e-01   8.7339585941811060e-01   8.5757584920196139e-01   8.6049501754761415e-01   8.6667570410882178e-01   8.4866502224031259e-01   8.3489085642420879e-01   8.4721174155739742e-01   8.5152174341881037e-01   8.4152308524597863e-01   8.2682913257574431e-01   8.8688487406332939e-01   8.4625604031982815e-01   8.3720704527120815e-01   9.0005648390572668e-01   8.6675868776945952e-01   8.6352784240044000e-01   8.9742924061822260e-01   8.4671645710187915e-01   8.4305868940915518e-01   8.5088699643784327e-01   8.3988897870079793e-01   8.4348502722916086e-01   8.2614278805186059e-01   8.6173507057687593e-01   8.5421716086408506e-01   8.5005403770557708e-01   8.3853432765832103e-01   8.4622419926271297e-01   8.6272548496103973e-01   8.5381549181257710e-01   8.4464669515310042e-01   8.4964214816482686e-01   8.3569535989200094e-01   8.4889639723856714e-01   9.0154806668994492e-01   8.9662907541752579e-01   8.6429940338856059e-01   8.4677228577228025e-01   8.6988413296952305e-01   8.9471574278974197e-01   8.3929616139044938e-01   8.5539631236931835e-01   8.8404281020172304e-01   8.4971131636927333e-01   8.5358183935103971e-01   8.4805061024936756e-01   8.4781720841511732e-01   8.6203272843830991e-01   8.4281624616741790e-01   8.4625707864261435e-01   8.4419713107750916e-01   8.4721240188811253e-01   8.4359443330548645e-01   8.4265655898495717e-01   8.5900998114091920e-01   8.4009521533202269e-01   8.4930663910091275e-01   8.3731620495753112e-01   8.5169162479634253e-01   8.4759860110440410e-01   8.5732829877335470e-01   8.6265770671574549e-01   8.4564468837729834e-01   8.6197905362174576e-01   8.4830999303617327e-01   9.1494877943896036e-01   8.6003922230117225e-01   8.6251390175172626e-01   8.4372737612660809e-01   8.5414352082031275e-01   8.5319784255446385e-01   8.5333116199361303e-01   8.3758429847863258e-01   8.4830475757232515e-01   8.4494310668127537e-01   8.6778533385892920e-01   8.5377574125935063e-01   8.5366806506063908e-01   8.5992910374735410e-01   8.7681791894537475e-01   8.6124225401913912e-01   8.6161638751018954e-01   8.4118693817655965e-01   8.2844671904811640e-01   8.5101935436153164e-01   8.4510938162731963e-01   8.8821561356543877e-01   8.5047619638889993e-01   8.3203937274486173e-01   8.4416942209470380e-01   8.4692872763379889e-01   8.7697771102959543e-01   8.6654969117194636e-01   8.2866627912437052e-01   8.2176346170361725e-01   8.4544831662332831e-01   8.2965106073728467e-01   8.2963174065011569e-01   8.4172163354053930e-01   8.5082051362552424e-01   8.3857496863949077e-01   8.4679579354233769e-01   8.4998532591417653e-01   8.4392398201146812e-01   8.1989055422255641e-01   8.4073523551864215e-01   8.8510748609888301e-01   8.2484741589910338e-01   8.3318921053582695e-01   8.6882036292971576e-01   8.4803168421801167e-01   8.9274662980696984e-01   8.6539022587585279e-01   8.5585677107307956e-01   8.6393894171869889e-01   8.6901242283777080e-01   8.4715039458685182e-01   8.0402634973067999e-01   8.4963165639562832e-01   8.3097521389103823e-01   8.3532805865132265e-01   8.4320810236438815e-01   8.7792868493095355e-01   8.4781961045811938e-01   8.3780358370240060e-01   8.4373865630167666e-01   8.1775352635845677e-01   8.2895617805944355e-01   8.1512910975022779e-01   8.4043461113709839e-01   8.2995469588315374e-01   8.3489658938386146e-01   8.5930794063168525e-01   8.3754571464050231e-01   8.3203379221779294e-01   8.2284031638659560e-01   7.9609353496774704e-01   8.4071561355622360e-01   8.1573089507075536e-01   8.1135368263537233e-01   8.4078811017486654e-01   8.4470177007838854e-01   8.5418548409768724e-01   8.1086031143483084e-01   8.2198419444533855e-01   8.4768259387956024e-01   8.3010457329949339e-01   8.4033033488252762e-01   8.4340876941181364e-01   8.4111383040591470e-01   8.8128245369891611e-01   8.5823869883946979e-01   8.3145345217789457e-01   8.3512888886077741e-01   8.4001544975099840e-01   8.4603405240252694e-01   8.3202641498118823e-01   8.2757597142856487e-01   8.4484749197913922e-01   8.3599444056682837e-01   8.4605245206500956e-01   8.4944986830048907e-01   8.5459457522039906e-01   8.4320294596985301e-01   8.4254568769265881e-01   8.4367779871086346e-01   8.4625041432275960e-01   8.4664292638734351e-01   8.0583310525350649e-01   8.4043956242008733e-01   8.2042988996980570e-01   8.5274716673597606e-01   8.5151823105126834e-01   8.6618610906810867e-01   8.6624599816759285e-01   8.4283788322075548e-01   8.4524136401731631e-01   8.6372402171722285e-01   8.4077682428113432e-01   8.4497939604005923e-01   8.4822958511535096e-01   8.5150923474364404e-01   8.4768886110384112e-01   8.5557415547196902e-01   8.5719009092542831e-01   8.4008212073291200e-01   8.4430865453844683e-01   8.6201478585623348e-01   8.5645383896683880e-01   8.5268143428664556e-01   8.5394141989743577e-01   8.5164725547920395e-01   8.6990835185629500e-01   8.4193803532538847e-01   8.4512762417715048e-01   8.4910278926194382e-01   8.4720569828278058e-01   8.4858760547824863e-01   8.5099299567303299e-01   8.4931513426560090e-01   8.5724113236601707e-01   8.8018647472563538e-01   8.6563782494713359e-01   8.5117608749680773e-01   8.5748221368973965e-01   8.3940747838365537e-01   8.7304320730247531e-01   8.4683198349210964e-01   8.6341914647028317e-01   8.8430989594389331e-01   8.3585858236939714e-01   8.3367002538610935e-01   8.9903910837616452e-01   8.9426066106956925e-01   8.6029010520904425e-01   8.7823833690500153e-01   8.5096877491915057e-01   8.4923861037040604e-01   8.2663982861877960e-01   8.4097977878936148e-01   8.7463358162234606e-01   8.7065317908201645e-01   8.6963735828814581e-01   8.8332000657825094e-01   9.2599973086385978e-01   8.6996765742066484e-01   8.6756156844560051e-01   8.7650199674020624e-01   8.8346293823916300e-01   9.0613026595458579e-01   9.2420035775221687e-01   9.0211808987268616e-01   8.9849736740734432e-01   9.1661002126498647e-01   8.5003491295069755e-01   8.3717976478008072e-01   8.4143920396419003e-01   8.3534015214326440e-01   8.4716349293565885e-01   8.4298243362799818e-01   8.4162438438970633e-01   8.5367608900900560e-01   8.3010547710937455e-01   8.4714204525717984e-01   8.4643497521529054e-01   8.5286682953484438e-01   8.4158253059837518e-01   8.5946743317694740e-01   8.4426644159178699e-01   8.4878985597710399e-01   8.3588426064070043e-01   8.5081659992417680e-01   8.8300139981403958e-01   8.4942161446332276e-01   8.4324738808750321e-01   8.4223169422735700e-01   8.1921598211980717e-01   8.3323258636423114e-01   8.6331358074160136e-01   8.5109559804960788e-01   8.4854112429048900e-01   8.3726334575342176e-01   8.4200284247027590e-01   8.4511079870920258e-01   8.3947249299948845e-01   8.2777705705669535e-01   8.5845606298709343e-01   8.4665081878777793e-01   8.5430061085650211e-01   9.0495034142784425e-01   9.1507623681792061e-01   8.5966674237931340e-01   8.5288315348155297e-01   8.6037703533829712e-01   8.6388506125982578e-01   8.5807100989876472e-01   8.5275481899443406e-01   8.5578216730939216e-01   8.7096074853025907e-01   8.4738074892607484e-01   8.5065757344890391e-01   8.8963874065385973e-01   8.7019536523812935e-01   8.5629193501531076e-01   8.6649430002195049e-01   8.6010517818483534e-01   8.5865624107877958e-01   8.4519417437529121e-01   8.3875609198879997e-01   8.3960794132842598e-01   8.6249534187676513e-01   8.7964810416296946e-01   8.5049742544456086e-01   8.4711982618412429e-01   8.5956845876616372e-01   8.7049497138795162e-01   8.9169111748528074e-01   8.5663581552406365e-01   8.6537217096862529e-01   8.5379260567612503e-01   8.3133053475414143e-01   8.5161414991175000e-01   8.6798877773351968e-01   8.1907036751643503e-01   8.2077086759417639e-01   8.4528080982255038e-01   8.5123443403525367e-01   8.5412394227111099e-01   8.2117754910862761e-01   8.2822932371863778e-01   8.3096617346653046e-01   8.2920638465399144e-01   8.3689879982868220e-01   8.2632185712089712e-01   8.3493449347373905e-01   8.4741061660431427e-01   8.4469958844274129e-01   8.4066774292124524e-01   8.3971217709584545e-01   8.8940909988774142e-01   8.6312695872748491e-01   8.3805764183637843e-01   8.6265805091814018e-01   8.2648686831446683e-01   8.4186898291028522e-01   8.4169448255453472e-01   8.4408924963489707e-01   8.3068293091553191e-01   8.3301053461225161e-01   8.1815442188301268e-01   8.5090019568497866e-01   8.4585959025167978e-01   8.3712879303549004e-01   8.4373014784211586e-01   8.3543142243389423e-01   8.5620053612573643e-01   8.4717863570445906e-01   8.4986149961930990e-01   8.5720593623571295e-01   8.6190344442437528e-01   8.6546270820236704e-01   8.4902675333923039e-01   8.5503016614880778e-01   8.4753301612194831e-01   8.5010587384893943e-01   8.4842624419501222e-01   8.7138395690715154e-01   8.5307312064731089e-01   8.3099232373472076e-01   8.3271621024237041e-01   8.3845036220411084e-01   8.4535733365274202e-01   8.7963658033819569e-01   8.5344628054141281e-01   8.8008952513610561e-01   8.7157530092710289e-01   8.7132155499567154e-01   8.9232595354813915e-01   8.5003743891214945e-01   8.4882946794171577e-01   8.6348162888776658e-01   8.4748667339691308e-01   8.1015796254935679e-01   7.9046220078405283e-01   8.5712791200099847e-01   8.6515408033527641e-01   8.6349998351958968e-01   8.2775764087174941e-01   8.2143850821619480e-01   8.1217750676579947e-01   8.6911661532943785e-01   8.4923861177549675e-01   8.5746547695714215e-01   8.4515555572855094e-01   8.5195385899675358e-01   8.3972292320832909e-01   8.5153969692535725e-01   8.6105433310756863e-01   8.5873959156217450e-01   8.4161791157442467e-01   8.4713903238823163e-01   8.4692117906116759e-01   8.4931896957144604e-01   8.2601167574179124e-01   8.1260315551576523e-01   7.8974625863952441e-01   7.9007277492206152e-01   8.3923009037989305e-01   8.3839169305208705e-01   8.7517370442527143e-01   8.5463016980597761e-01   8.3158158273381466e-01   8.1203727913090373e-01   8.3898807324574942e-01   8.2872452160060339e-01   8.3752385652183536e-01   8.3475785664344204e-01   8.4756326311162944e-01   8.7084387608558478e-01   8.0158524901992145e-01   8.5723251499021902e-01   8.3602707798968556e-01   8.4837670248662711e-01   8.5030167191210015e-01   8.4146331601558699e-01   8.4002271779477200e-01   8.3798603066133137e-01   8.3510687504992831e-01   8.4555871969187457e-01   8.2427269768400158e-01   8.3280372168428984e-01   8.0460839477608326e-01   8.6651916988997035e-01   8.4134775148396479e-01   8.3768799694359042e-01   8.4236857691680267e-01   8.5056329396189589e-01   8.6114320128643052e-01   8.5883648497969833e-01   8.6619936536601594e-01   7.9077915949989885e-01   8.5998249527024784e-01   8.4337806832604401e-01   8.3685792965665196e-01   8.5357049982099897e-01   8.4826371444778403e-01   8.6703063734953334e-01   8.6906523701397675e-01   8.2902918467068487e-01   8.3241741762353283e-01   8.3012494083175881e-01   8.4251131661901113e-01   8.4148430945432140e-01   8.4548502057052533e-01   8.4140692731839262e-01   8.6653003860369426e-01   8.6264126520552076e-01   8.5476400162717048e-01   8.5722458181116012e-01   8.4440132567331827e-01   8.2960772445457132e-01   8.3679732242309379e-01   8.3445034501222071e-01   8.5331449094754697e-01   8.4927222877258401e-01   8.4578278611027635e-01   8.3579159611392773e-01   8.2691283708266239e-01   8.3505530739293943e-01   8.4954097842191867e-01   8.4780607469886871e-01   8.5419239906470423e-01   8.5211949161300005e-01   8.1091321959317741e-01   8.1706842167817118e-01   7.9708405681663419e-01   8.9041732745943902e-01   8.5348414248877147e-01   8.8435204600046735e-01   8.3569807417159248e-01   8.2709799999738720e-01   8.4927783528648171e-01   8.4656720922553752e-01   8.6832974768633919e-01   8.6236858090144597e-01   8.6237960818100456e-01   8.5364949666905232e-01   8.3989519629601073e-01   8.3681162360630745e-01   8.5451602254261283e-01   8.2859989837863812e-01   8.4896366034016835e-01   8.5104996430238822e-01   8.4947295305156933e-01   8.4812141767890670e-01   8.4383100076822026e-01   8.3187237782188028e-01   8.4278955367944308e-01   8.4738203416358293e-01   8.4943787345176969e-01   8.5280935161810478e-01   8.4368459110557692e-01   8.0385584367407659e-01   8.2802185603257250e-01   8.3434472081225985e-01   8.1628146289307213e-01   8.4279882354898250e-01   8.6381943837891073e-01   8.8776552554709254e-01   8.7632182521558444e-01   8.5975296753949848e-01   8.4668508992607228e-01   8.5176051429265154e-01   8.4600278392239725e-01   8.2678971734658424e-01   8.4035804093515376e-01   8.4703940347505269e-01   8.4327224480234508e-01   8.4104466441617554e-01   8.1465699091306110e-01   7.8956184722121303e-01   8.4691440197119205e-01   8.4522966133408750e-01   8.2608934260791189e-01   8.4118782490249799e-01   8.2491851156498763e-01   8.2957728636619721e-01   8.4394850155088275e-01   8.4336711215757298e-01   8.4933197808923522e-01   8.5637119035151510e-01   8.5157021143595646e-01   8.7398679342079799e-01   8.7895130455961190e-01   8.5317341649216205e-01   8.5329913129833523e-01   8.6286106392947648e-01   8.2786212631889211e-01   8.2098542802518959e-01   8.8877721763961015e-01   8.9084855756881409e-01   8.9248238146866088e-01   9.1439669064966944e-01   9.1419450365725685e-01   9.2440070980716860e-01   8.9009964648266870e-01   8.9130527310841023e-01   8.7617149058956190e-01   9.0439221074822551e-01   8.6318994171958918e-01   8.8161610070086682e-01   8.9252376028708091e-01   8.7864534337208888e-01   8.7757102331636072e-01   8.9509211306719150e-01   8.9295228240816038e-01   8.9297242635570862e-01   8.2989549365280635e-01   8.2028507989246247e-01   8.4131500300286011e-01   8.4745789745422295e-01   8.5446946113453759e-01   8.3972883735565618e-01   8.6785320669742572e-01   8.5910268901515230e-01   8.2704072785004135e-01   8.1402428365247381e-01   8.8678571977498666e-01   8.9206633346443942e-01   8.6998123065112443e-01   8.5785357143975149e-01   8.5357900058347613e-01   8.4410206864762194e-01   8.4872146618711708e-01   8.6213960990450700e-01   8.0463601046346744e-01   8.1806579233892029e-01   8.1485549502669796e-01   8.2147733941998013e-01   7.9662224664784431e-01   7.9061590014686911e-01   8.0495374859709379e-01   8.2590610997853231e-01   8.2713148244671653e-01   8.1419912920595161e-01   8.2988847748312089e-01   8.1520539765343047e-01   7.9746657239623131e-01   8.1513490715533865e-01   8.2252333429531665e-01   8.1463311286648210e-01   8.8406840961953348e-01   9.0628558987705810e-01   8.9145516989919782e-01   9.0265181948454776e-01   9.1736493474402292e-01   9.0385407813362184e-01   9.4953856558677230e-01   9.4942361481430260e-01   9.2624848637409485e-01   9.1535493698251802e-01   8.4439257945314750e-01   8.2191943153914637e-01   8.6673156635319482e-01   8.7918742751073242e-01   8.5341449734836716e-01   8.5997398700373806e-01   8.3446379560037476e-01   8.7200570009616918e-01   8.7646395713488789e-01   8.5616724758648410e-01   8.8166381564673246e-01   8.5085312149653625e-01   8.4573919245988682e-01   8.6598479594348410e-01   8.5717761018007266e-01   8.5914042996781370e-01   8.5748441597374581e-01   8.8538374510421580e-01   8.7002947888478077e-01   7.9799602468229680e-01   8.1639885303975135e-01   8.3259626892089456e-01   8.2059380077052990e-01   8.1086151238634363e-01   8.2628597745325461e-01   8.5979869096030426e-01   8.5958486770916920e-01   8.7325330066113394e-01   8.6722503500870607e-01   8.6226044548950953e-01   8.6034165711207444e-01   8.4449910999383548e-01   8.8478803951855733e-01   8.4219715135587525e-01   8.2324493433860901e-01   8.1650668124578885e-01   8.7464697737900499e-01   8.3391452055219073e-01   8.4489683655682257e-01   7.8933580187424102e-01   8.0991649069375371e-01   8.5348846298154779e-01   7.8907915349035962e-01   8.0995367521437456e-01   8.6047698423618879e-01   8.6384764868961550e-01   8.5655629989863624e-01   8.6224350167359765e-01   8.5093210036071476e-01   8.5559941317217048e-01   8.4784534680691093e-01   8.5076027110608243e-01   8.5087800896036669e-01   8.1753335898981261e-01   8.8197930102793520e-01   8.7752349507479210e-01   8.7027491304830196e-01   8.5124379420225549e-01   8.2611496862798350e-01   8.4143685387319289e-01   8.7946371947177471e-01   8.5533331096309850e-01   8.6087454514608486e-01   8.2584090171486813e-01   8.5086871557482324e-01   8.8217732700172591e-01   8.6900543527619578e-01   8.5932241235639517e-01   8.5943171024250575e-01   8.5327350443087746e-01   8.7994777469913132e-01   8.5771468328832179e-01   8.7496660676279747e-01   8.3925492474746188e-01   8.3396197291251717e-01   8.8659887637183821e-01   8.6817811421353841e-01   8.4671341775888154e-01   8.5227201653500939e-01   8.3557159466166520e-01   8.5060852269424014e-01   8.4136482492054954e-01   8.3563527974652263e-01   8.5454953768275388e-01   8.8840911725016813e-01   8.2648482650408761e-01   8.2687266492526312e-01   8.4764177634855009e-01   8.4054562665311328e-01   8.4927674768049366e-01   8.3589097211262842e-01   8.4098379617383279e-01   8.4237415307325381e-01   8.3441527160841245e-01   8.7722036299406592e-01   8.5840420882859336e-01   8.8976954561658894e-01   8.7476422872522241e-01   8.7901930347190138e-01   8.7907940326068534e-01   8.3055722807325782e-01   8.4984548587439679e-01   8.0229518994187521e-01   8.1478743511303664e-01   8.4556404054856371e-01   8.4374078412744768e-01   8.5949732238729404e-01   8.4364084829765584e-01   8.5132787592730319e-01   7.9834289903269473e-01   8.2132212029425300e-01   8.5888836357936460e-01   8.7951142367529589e-01   8.6730206679156674e-01   8.8719997073663504e-01   8.3122923433833373e-01   8.2412965305920971e-01   8.3270367600122897e-01   8.4095649920282789e-01   8.9132272927472400e-01   8.6639726165282172e-01   8.4965906871969676e-01   8.5171986932632826e-01   8.4917631658754500e-01   8.5034124571198366e-01   8.6674401998551021e-01   8.5704937455374519e-01   8.5118544364807280e-01   8.3933339812072327e-01   8.4732265445550137e-01   8.4345219251400971e-01   8.4534709144237530e-01   8.4747129272035049e-01   8.4859843259911394e-01   8.4602719855612396e-01   8.5019618116501572e-01   8.4852256280320593e-01   8.5102065016813933e-01   8.8184396861624348e-01   8.5767766704861703e-01   8.9999914081691879e-01   8.8718112858277931e-01   8.4212487158141736e-01   8.3221882178872453e-01   8.6565882744784339e-01   8.6050820892248514e-01   8.4928946825791007e-01   8.4737681177841517e-01   8.4884867302326539e-01   8.4297891255124668e-01   8.3400883797404202e-01   8.4719737859901534e-01   8.4560866465155404e-01   8.4097528360115592e-01   8.2846290730086936e-01   8.1721895772396169e-01   8.4781585545903093e-01   8.5929519264887422e-01   8.5095745752928220e-01   8.4267864814117932e-01   8.4015619382392204e-01   8.4911020910519408e-01   9.1444021014531285e-01   8.0992439296716490e-01   8.1059520275218488e-01   8.3892230124969291e-01   8.7925091906453190e-01   8.4705850876359745e-01   8.5224592785940989e-01   8.5520367617086079e-01   8.7450455730866739e-01   8.5907992044972226e-01   8.8038413894188938e-01   8.4214479455899582e-01   8.4692648218293209e-01   8.3781709360932954e-01   8.3524962527969437e-01   9.0207584344495439e-01   8.6276388172280272e-01   8.3880238893846892e-01   8.4937941011166129e-01   8.4508481716874706e-01   8.2891533730167910e-01   8.3226910377066321e-01   8.4741962089497624e-01   8.5300784649775763e-01   8.3918509685806120e-01   8.3257468779187993e-01   8.5299638866583993e-01   8.4057638223096298e-01   8.81072295118418