<?xml version="1.0"?>
<VTKFile type="UnstructuredGrid"  version="0.1"  >
<UnstructuredGrid>
<Piece  NumberOfPoints="1109" NumberOfCells="1972">
<Points>
<DataArray  type="Float64"  NumberOfComponents="3"  format="ascii">1.550126341773762e-18 1 0  1.578738827268872e-18 1.479198614015166e-18 0  1 1.333941296917816e-18 0  1 1 0  0.8517658754480921 0.5411072849019085 0  0.8556925176013072 0.4999675289200357 0  0.8518247345258497 0.4588773193651305 0  0.8407344462498965 0.4195338820370317 0  0.8230998813554322 0.3829349171675767 0  0.7994863168036952 0.3485788292930466 0  0.7704710836080141 0.3144784158883365 0  0.7375059766567951 0.2798463655894266 0  0.7027467457197381 0.2456288281728205 0  0.6683601269467263 0.2143842440707107 0  0.6343625418747391 0.1879697198478348 0  0.5990309570189707 0.1673005350185574 0  0.5610279066854679 0.152813813024195 0  0.5206017499753121 0.14536521899342 0  0.4794141258840549 0.1453367735295569 0  0.4389604185859631 0.1528145498187717 0  0.4009615799512198 0.167285381835774 0  0.3655648276652591 0.1880282910971662 0  0.3316531104076275 0.2143726258391923 0  0.2972836122992855 0.2455740788095813 0  0.2624820679261224 0.2798183730106001 0  0.2294191092873785 0.3145230220818661 0  0.200540859393501 0.3486706293822476 0  0.176949973744176 0.3830050946426246 0  0.1592438192492018 0.4194837071133345 0  0.1482013132323989 0.4589296180191466 0  0.1443356269768025 0.4999150532394103 0  0.1481112485920683 0.541075366919753 0  0.1592487939267878 0.5804621946228807 0  0.1768842479783609 0.6170284640783343 0  0.2004924906581106 0.6514346364971028 0  0.2295327296286929 0.6855648244582617 0  0.2622652906587078 0.7203426693784736 0  0.2970494602267069 0.7544007226778803 0  0.3317058075858034 0.7856176717861518 0  0.3655993998131417 0.8120476998163466 0  0.4009882459061105 0.8326803043343456 0  0.4389791272930458 0.8471215904856506 0  0.4793868989651328 0.8546425780293085 0  0.5205802021208378 0.8546800642088317 0  0.5610389761867193 0.8471918980516233 0  0.599100040964457 0.8326815554677641 0  0.6344067700744251 0.8120021751032369 0  0.6683874651964906 0.7857585876346626 0  0.7029332126681731 0.7544920945022532 0  0.7374892816813365 0.7203265619673536 0  0.770638342750505 0.6856117082314351 0  0.7995567151712087 0.6514237711048717 0  0.8231294347386008 0.6170389411671985 0  0.8407378783266805 0.5804633588693798 0  0.5 1 0  5.853106588452374e-19 0.5 0  1 0.5 0  0.5 2.694943907925083e-18 0  0.75 1 0  0.25 1 0  4.735231737246405e-18 0.75 0  3.154089062956073e-18 0.25 0  1 0.25 0  1 0.75 0  0.75 4.345689171112784e-19 0  0.25 3.264445877228513e-18 0  0.625 1 0  0.375 1 0  5.928816039837514e-18 0.625 0  1.037639254876563e-18 0.375 0  1 0.375 0  1 0.625 0  0.625 5.536449889093112e-18 0  0.375 2.701395722016834e-18 0  0.125 2.721250453762106e-18 0  0.875 2.356192338207176e-18 0  1 0.125 0  3.642818673261641e-19 0.875 0  0.125 1 0  0.875 1 0  3.013783891967692e-18 0.125 0  1 0.875 0  0.1700927203050957 0.1465215253011412 0  0.8298859390724902 0.8533739102029114 0  0.8299342127386737 0.146493156807247 0  0.1517151386418054 0.8482319285711688 0  0.9074103108686514 0.2074977121901179 0  0.1171095596161178 0.2335803438222829 0  0.8828763778984253 0.766524849919766 0  0.1159329854642002 0.7350108146619169 0  0.2438014801584103 0.8826255394649204 0  0.08114649073410556 0.08116009555183117 0  1 0.0625 0  0.9375 2.050392361524884e-18 0  0.0625 1 0  1.510103768414959e-18 0.9375 0  0.9187997470694903 0.9188637973187013 0  0.7075945432405568 0.1061766609603379 0  0.2924664691935466 0.1062144598624838 0  0.7445588713066208 0.8851213312691106 0  1 0.6875 0  1 0.3125 0  0.0906451918354501 0.3151531861530198 0  3.495745158215464e-18 0.6875 0  0.1875 3.774172109898771e-18 0  0.8125 3.593132465299091e-18 0  0.8965401593204095 0.2905093719060301 0  0.3125 1 0  0.6875 1 0  0.9103680606201958 0.08962890672613921 0  0.9020211919770299 0.6944572866433252 0  1.748849114365298e-18 0.8125 0  0.08538848383504538 0.9145980385051132 0  0.07768017152653017 0.827663159933295 0  0.8191251265989727 0.2285165432898397 0  0.3114666819136708 0.9031732019453952 0  0.6540188651044999 0.9074973555554394 0  0.9060736159666897 0.8417980140807294 0  0.09398587724054203 0.1580515653434676 0  0.8125 1 0  0.08288711043391267 0.6420418407671897 0  0.9132499128210126 0.3492608533156787 0  0.222227295567319 0.7981580341869231 0  0.6479789240078161 0.08219174438557264 0  0.3125 4.23991233143134e-18 0  0.3578712332109928 0.08236415110919301 0  0.2492446578286202 0.1611908646014486 0  0.7826467541814255 0.09061829433706126 0  0.1706521974046077 0.9223533131728837 0  0.5625 1 0  0.4375 4.233387881589087e-18 0  0.4375 1 0  0.5625 6.480350572190546e-18 0  0.2026742450489143 0.08419916752371095 0  0.9130986620489092 0.6281216048725946 0  0.7559955653659872 0.172603819377325 0  0.8119110936560338 0.9222168536870144 0  1 0.4375 0  4.588477957731052e-18 0.4375 0  1 0.5625 0  3.66271035599613e-18 0.5625 0  5.20565728178411e-18 0.3125 0  1 0.8125 0  0.0625 1.264926970311992e-18 0  1.463208330949177e-18 0.0625 0  1.340507160277635e-18 0.1875 0  1 0.1875 0  1 0.9375 0  0.9375 1 0  0.6875 5.597643929015094e-18 0  0.1875 1 0  0.7732779529979829 0.7935429466307242 0  0.1921246078889912 0.2237977156853307 0  0.848675579551247 0.07328078033220536 0  0.1829320225076836 0.7507467158511324 0  0.3673027452261665 0.9173807419365965 0  0.9224040246459759 0.4228833679327116 0  0.07763093167323379 0.5771925353600789 0  0.0732791611572447 0.4142699635691929 0  0.5860367272088508 0.0712196601507951 0  0.6007495294674817 0.917766607474115 0  0.4107174830621372 0.07367233463272553 0  0.06945745389862745 0.7000263176979681 0  0.9306675034361221 0.5286373983828631 0  0.06933424214919733 0.471327158626772 0  0.1488183770356742 0.2939391176400799 0  0.14270506499157 0.08075196180662894 0  0.9290792865773881 0.5801077208435776 0  0.6866608323739574 0.8591175207504894 0  0.7136970815164143 0.931932798811634 0  0.06913143011899386 0.3615501264647678 0  0.930437438156996 0.1457033780333849 0  0.4182997821616383 0.9279255767341945 0  0.5365402619975062 0.06977845616383707 0  0.4711318162986875 0.06523667759134934 0  0.4680105287013203 0.9328907145216112 0  0.5288593371779028 0.9347510969908113 0  0.8419979549493691 0.7101002398195236 0  0.8136254748816998 0.7552156197485722 0  0.05353103643113252 0.7689545689784562 0  0.722616371382824 0.8193947995178765 0  0.2695722278818191 0.8182853324164496 0  0.05309038080965796 0.2309250957020831 0  0.9346992458764238 0.7465043725011945 0  0.9285663991001099 0.4744572578600282 0  0.0714576844156249 0.5255718800518433 0  0.8620087020972543 0.9095871697188063 0  0.8362199380546194 0.278816825177882 0  0.1319127711340321 0.6649984646709306 0  0.7694606392141146 0.9488434463763219 0  0.1246591008799823 0.7833875778511271 0  0.198896834548052 0.8658215031027253 0  0.2307199353707769 0.9478883084397243 0  0.8534865142635528 0.8053658607850427 0  0.8740483351907248 0.1718488987415129 0  0.9406105845702066 0.2431880451832274 0  0.9377142545939597 0.8041330265881301 0  0.2450863452957028 0.06085915780962398 0  0.3044176161893591 0.8469657144008534 0  0.7771694527752837 0.850895863549088 0  0.7087952959487692 0.04655969329888104 0  0.2911994921360037 0.04655331726611274 0  0.7515759300844391 0.05735143699117324 0  0.8943928108535658 0.04342830530210733 0  0.04199067573547889 0.1655741851914189 0  0.1453125130166813 0.1862705926692749 0  0.9446945316899519 0.3054578008814999 0  0.1612494870300418 0.6947782929752395 0  0.9610602043737134 0.1008345931265077 0  0.2443534772205386 0.2250879366552907 0  0.05459912135628783 0.877557333182539 0  0.1008187100846943 0.9608722977047857 0  0.165073366361451 0.03985236245080485 0  0.8589980485287215 0.3416719110346588 0  0.7550705728471638 0.2257518773659098 0  0.1043768915000313 0.04101146618571658 0  0.03807636484565839 0.1006142141870295 0  0.8924550632141605 0.9564507149230214 0  0.9619898741126788 0.8994087416166431 0  0.1190453859449758 0.1205547690945396 0  0.9568567215815967 0.9568653075114999 0  1.393808283976423e-18 0.03125 0  0.03125 1.465751661723354e-18 0  0.0462375334587684 0.9537905657386 0  0.9506745189540071 0.04931966272646852 0  0.8736472862732495 0.6509895287988106 0  0.1678933937854163 0.7991542844199552 0  0.1688511115793649 0.2587854148726303 0  0.09185663853311048 0.2725593217517556 0  0.28125 1 0  0.2738542186348913 0.9457282990999086 0  0.1031260252591673 0.8608252537952925 0  0.6627095381752077 0.130576298126169 0  0.709793831867033 0.1639434579970978 0  0.3385718205968343 0.1279205226530239 0  0.2955466148441072 0.1629986903102004 0  0.8944827222864753 0.3911221074607709 0  0.795177997235887 0.1876887631986853 0  3.586399171577188e-18 0.28125 0  0.1454327881290075 0.3321727616246022 0  0.6375353790213574 0.9508504682469224 0  0.2077851520911814 0.1842341149649255 0  0.8869462262272794 0.2518660215148112 0  0.9570994578326331 0.7138717553077076 0  0.9380567804141746 0.6699970000306217 0  0.3651450789890514 0.8645227343412262 0  0.2445903730534589 0.1105896969555364 0  0.04578241181712666 0.0457594773684926 0  0.5616427461814403 0.9077571207778289 0  0.1286488247388082 0.9188104214521727 0  0.1230928245530165 0.3851566405806627 0  0.9541535975688811 0.1784578426446591 0  0.8755733881227969 0.1263370603788108 0  0.7423239988972251 0.1201201868902397 0  0.9530363706434667 0.8576401512121423 0  0.84375 3.355825585032538e-18 0  0.8168780756137344 0.04820843693686223 0  0.4988482001200755 0.9012690868754099 0  0.4999926127730446 0.100669035713791 0  0.8899490682909824 0.8795852351957905 0  0.786465226996878 0.269807278148839 0  0.07642195666677776 0.2015136553549093 0  0.84375 1 0  0.8504356864812157 0.9542764185335082 0  0.1074731612935526 0.6042775176561651 0  0.05360251633102792 0.6168168327769616 0  0.401584918271859 0.8855672776373936 0  0.59375 1 0  0.04956084261974598 0.2833421863746041 0  1 0.34375 0  0.9475038287771619 0.371854209346814 0  0.2158202291482363 0.2660223555696456 0  0.309047124126
[...]
<CellData  Scalars="dens"> 
<DataArray  type="Float64"  Name="dens"  format="ascii">8.3274533218854629e-01   7.8092065470048433e-01   7.7345659906544717e-01   7.7462150513860539e-01   7.6600470633578710e-01   7.4120835026516319e-01   7.7845251587553133e-01   7.9912412657379917e-01   7.8880473584065491e-01   7.5416241467862066e-01   7.6751709611107011e-01   8.1268998596826170e-01   7.7679396863923844e-01   7.9227786998744942e-01   8.0088668763429660e-01   7.8513728338607458e-01   7.7644256682200030e-01   7.4899036697646937e-01   7.4693839541982465e-01   8.3141692984425086e-01   8.0046105183871907e-01   7.9139018649979376e-01   7.8090342020103554e-01   7.5321574738855746e-01   8.0365678927391071e-01   7.8671230155465044e-01   8.2934380596297486e-01   7.8625007784713219e-01   7.5086595699843317e-01   7.9757072723191802e-01   7.7832234991139027e-01   7.5363684074840576e-01   7.8834130737469421e-01   8.0001588510437038e-01   7.7594459013052919e-01   8.1922562001590093e-01   7.6578492747993387e-01   7.5519352847778165e-01   8.4265950700917502e-01   7.9256148064101817e-01   7.9558495236836990e-01   8.3546377168194519e-01   7.6476132716050682e-01   7.6271238346519976e-01   7.8221461078931798e-01   7.6100467981020881e-01   7.6669617178941962e-01   7.4269683765665295e-01   7.9299327240609707e-01   7.8282979717238854e-01   7.8674292453016959e-01   7.6561061602582414e-01   7.7095057370622955e-01   7.9485349325189414e-01   7.8587544080356975e-01   7.8341637147151544e-01   7.8987611472275854e-01   7.5267880947025356e-01   7.7967131495443509e-01   8.4629048246016858e-01   8.3302260040202802e-01   7.8849439565323876e-01   7.7381585565801536e-01   7.9443828581147313e-01   8.3293864520604699e-01   7.5939513909501388e-01   8.0433168321330462e-01   8.6255331584593065e-01   7.7945504755216743e-01   8.0921474091431933e-01   7.8985398792836647e-01   7.9001279565669225e-01   8.1705616179285900e-01   7.7620309489957628e-01   7.8736933138013132e-01   7.8596388915947857e-01   7.9043273036799866e-01   7.7918155773278264e-01   7.7334423976199695e-01   7.8411431377346064e-01   7.6232938217215285e-01   7.9080177925719120e-01   7.7174555215063334e-01   7.8643181416363450e-01   7.9139868372514743e-01   7.7696538303369533e-01   7.8596243561931400e-01   7.8713598475496183e-01   7.9278229301061232e-01   7.7572569808206238e-01   8.6206340876089804e-01   7.8062416090280806e-01   7.9156900147711029e-01   7.6877297912802345e-01   7.7580573619333182e-01   7.6658950422618910e-01   8.0036976949411398e-01   8.0487085340977715e-01   7.9783662723956961e-01   7.6499915970664945e-01   8.0146721268789600e-01   7.8550509764772458e-01   7.7613247099244143e-01   7.8429241488315482e-01   8.0987455810757303e-01   8.1039583729953824e-01   8.1900142343194915e-01   7.5979194004487094e-01   7.4404430525983245e-01   7.9843938292089944e-01   7.7962723168987613e-01   8.6329266745265620e-01   7.9257903033082511e-01   7.4698743907909737e-01   7.6115472668678719e-01   7.7027832207109381e-01   8.1029811658747708e-01   7.8985095089936197e-01   7.5787895189479637e-01   7.4686188763953432e-01   7.8395515262764925e-01   7.5878405964751883e-01   7.6123431085412874e-01   7.6313228827501312e-01   7.7913630719091875e-01   7.7517323906431890e-01   7.7283364296459822e-01   7.8138944291360546e-01   7.6056005344098232e-01   7.4450260768753995e-01   7.7781859592561475e-01   8.5098334254342245e-01   7.5330853311113610e-01   7.6258942254135176e-01   8.0122849901105697e-01   7.8810435673976997e-01   8.2844307680281692e-01   7.9807178172076998e-01   7.8766667819500324e-01   7.9304693998731479e-01   7.9326427499572250e-01   7.9385479984053098e-01   7.1867849923406690e-01   7.8202413782064284e-01   7.4607795094570517e-01   7.5043882470941470e-01   7.6225410871849719e-01   8.1218371078290441e-01   7.6364592198133496e-01   7.6442047441924366e-01   7.7898368174393651e-01   7.3973616147867749e-01   7.5661388202644098e-01   7.3913575194705883e-01   7.7447417855028999e-01   7.6274572487202674e-01   7.7168044155403204e-01   8.0979770877609059e-01   7.7453705996666644e-01   7.6132512383883344e-01   7.4829557816808934e-01   7.1023701263532124e-01   7.7879659242266108e-01   7.3644630553474422e-01   7.3059289347950673e-01   7.6839369038498695e-01   7.8258236249294677e-01   7.7293674670127588e-01   7.2968980817457452e-01   7.4759618778334469e-01   7.8669534217674086e-01   7.4988650772748866e-01   7.6786263402529698e-01   7.7625276343198468e-01   7.7527314252110868e-01   8.1896515240241907e-01   7.8067790877246568e-01   7.6299120622295902e-01   7.6987597926080820e-01   7.7444252571933703e-01   7.8524430407126411e-01   7.6078225500048846e-01   7.4697118717748390e-01   7.6892142135388608e-01   7.4994385820151754e-01   7.6723067669507861e-01   7.7954507273310192e-01   7.8518808236259785e-01   7.7833571190010398e-01   7.7539750980430056e-01   7.7897311079735132e-01   7.7470456194959347e-01   7.8133828654059578e-01   7.2571201935346041e-01   7.7573631089017969e-01   7.4598600623174183e-01   7.9865418069884464e-01   7.6922174848775982e-01   7.9016665013910570e-01   8.2872393961706237e-01   7.7072656677386597e-01   7.7841095004526217e-01   7.9601913802770408e-01   7.6654873833740556e-01   7.7606844372478723e-01   7.7893310007116245e-01   7.8291378087032171e-01   7.7753238197177144e-01   7.7714221448435272e-01   7.8139561255602563e-01   7.6020392775898116e-01   7.5979661214163075e-01   7.9453926865867308e-01   7.8586769139629742e-01   7.8241955135133401e-01   7.8405149533095020e-01   8.0152948421045900e-01   8.4234649203107803e-01   7.7749354415350702e-01   7.6663900109870298e-01   7.8419039309954730e-01   7.8275230183609834e-01   7.8027053560291570e-01   7.8193549186089761e-01   7.8185136889438689e-01   7.8112705798924431e-01   8.1712343300302404e-01   7.9846967131485891e-01   7.7400771130227641e-01   7.7729633417906385e-01   7.7036371052591146e-01   8.4558747109959398e-01   7.8251745456327060e-01   7.8557135415721979e-01   8.1624338372473182e-01   7.5293357447262776e-01   7.5325329855010892e-01   8.3695133210184558e-01   8.3352604301296007e-01   7.8478207075675965e-01   8.1560261604222872e-01   7.9530957704531358e-01   7.9559272626912247e-01   7.3877553955553155e-01   7.6439726753633930e-01   8.0403896970040367e-01   7.9586377859250457e-01   7.9707576388009016e-01   8.1990689240958581e-01   8.8252264071702069e-01   7.9566837001687296e-01   7.9168800568610886e-01   8.0473928880142076e-01   8.1720540140361375e-01   8.5358154467449421e-01   8.7961722893686933e-01   8.4156186727673821e-01   8.3707009234556695e-01   8.6507811218824515e-01   7.9967106552063494e-01   7.5436617653899385e-01   7.5699798222726566e-01   7.5213766844006080e-01   7.7208874482598833e-01   7.8082520201349692e-01   7.7964829504095956e-01   7.9922926581327569e-01   7.4955114699959413e-01   7.8129677690097388e-01   7.6665650414464104e-01   7.7111761601008566e-01   7.8003976780388851e-01   8.1297858780242327e-01   7.7896819056970090e-01   7.9067080947381696e-01   7.5603539698553734e-01   7.9417139396507286e-01   8.6053981904803756e-01   7.9518070271867536e-01   7.6038704170360161e-01   7.5826653877435946e-01   7.3627871526703426e-01   7.5656806773627239e-01   8.2226754064608187e-01   7.9347002235606878e-01   7.6868480553838536e-01   7.5741048253024934e-01   7.7006406565083763e-01   7.7372764134564964e-01   7.7238333165741446e-01   7.5098698174371203e-01   8.1546675758002019e-01   7.7448265818608075e-01   7.8326189975896665e-01   8.4651089401805291e-01   8.6222581223723060e-01   8.1012514633214983e-01   7.7302074069172733e-01   7.8249249723502134e-01   8.2693539081077616e-01   7.8846504430370645e-01   7.8247592105498953e-01   7.7591599903849096e-01   7.9558919999373057e-01   7.8075183567708328e-01   7.8458670341744008e-01   8.2871943338054710e-01   7.9775511966176404e-01   7.8545133926808131e-01   8.0025592178270644e-01   7.8924131732764913e-01   7.9032578853660873e-01   7.8207061507353304e-01   7.7648945842178307e-01   7.7836469347359571e-01   7.8543321471798822e-01   8.0997717301422911e-01   7.9442973207427969e-01   7.7110833806254597e-01   7.9099729861579082e-01   8.0557122779268087e-01   8.3381842898635228e-01   7.8441628296733856e-01   7.9804212067112090e-01   8.0074185952748611e-01   7.5847587846557818e-01   7.9931125795273328e-01   8.2911535459623464e-01   7.4257697406285683e-01   7.4404168363258272e-01   7.7562034161305737e-01   7.9108256280118661e-01   8.0228717918087200e-01   7.3865311071446926e-01   7.5383848529104414e-01   7.5770101280919389e-01   7.4361054395422910e-01   7.5451631209316028e-01   7.4833835755748801e-01   7.6371520680975991e-01   7.8065418703298783e-01   7.7838054521476074e-01   7.8032224787095417e-01   7.7434690542414608e-01   8.6500975087679721e-01   8.2288832538672008e-01   7.6024340031947302e-01   8.2271408342278973e-01   7.4819357744844028e-01   7.7024527672569953e-01   7.8241132019999959e-01   7.7653895994187871e-01   7.5950806642011592e-01   7.6404291493184728e-01   7.4141208714381623e-01   7.9478656055211272e-01   7.8228242301973749e-01   7.6682234986053166e-01   7.8266842038914508e-01   7.6308991584645980e-01   8.0776658127140410e-01   7.7557188419690526e-01   7.7262703247196640e-01   8.0818265753516083e-01   8.1012942055769777e-01   8.2723137131658686e-01   7.9658961806454132e-01   8.0959553345252122e-01   7.9229402845951957e-01   7.6830052941765725e-01   7.7558810751024609e-01   8.0558755819443506e-01   7.7614909500094431e-01   7.4296141413212946e-01   7.4684377554502535e-01   7.6568647307216098e-01   7.8452189852685872e-01   8.0971047473317070e-01   8.1146253167307569e-01   8.5743703084222755e-01   8.0508939089245368e-01   8.0524750422128455e-01   8.3464429789163219e-01   7.6869319050700036e-01   7.6835338798791619e-01   8.2370729410832444e-01   7.9802696397414752e-01   7.2920842026892696e-01   7.0433624617976742e-01   8.1151325656032203e-01   8.3348524021972881e-01   8.2175900454775552e-01   7.5435390772476907e-01   7.4278689342519866e-01   7.3195972464608106e-01   8.0394515969977420e-01   7.6872477778649628e-01   7.8433936750534961e-01   7.6775472071911566e-01   7.8019641281860463e-01   7.5824682581804959e-01   7.7401765175402193e-01   7.8279687253092467e-01   7.8155377778528257e-01   7.7271391132536726e-01   7.8466765986096765e-01   7.8170985179780850e-01   7.8419865424876933e-01   7.5488374626706134e-01   7.3593634790273266e-01   7.0350549865614820e-01   7.0392593323078567e-01   7.6956097572920223e-01   7.6812810842091916e-01   8.4798698481732770e-01   8.1532215681301545e-01   7.5997089354273561e-01   7.2777275732944335e-01   7.5758610766431500e-01   7.4176314374053443e-01   7.7458631763528996e-01   7.6469891775492216e-01   7.9514735660118041e-01   8.3290961424371934e-01   7.1613876160845291e-01   7.7685509936299624e-01   7.4946590619466935e-01   7.8966417032361436e-01   7.9278668366560490e-01   7.7675610746588719e-01   7.6210956136360675e-01   7.6687069181280310e-01   7.6484830253042813e-01   7.8535851422603919e-01   7.4666069605191410e-01   7.6139949255041917e-01   7.1938818007460437e-01   8.2765644989891529e-01   7.5796010375986456e-01   7.5787120216199022e-01   7.7773288758428205e-01   7.8502788718943439e-01   7.9327409448901809e-01   7.8973161612039566e-01   8.2708096331028613e-01   7.0461380917555683e-01   8.1387231559290540e-01   7.7926947341794506e-01   7.6406579396864371e-01   8.0859446419866321e-01   7.9650840958656877e-01   7.9944551102440464e-01   8.0180796790588293e-01   7.4489201772831626e-01   7.4871716982652636e-01   7.4719976419702117e-01   7.5938316433462938e-01   7.5701947929999702e-01   7.6573404932659928e-01   7.5793913193588680e-01   7.9811278525936868e-01   7.9486638975358992e-01   7.7566166761401290e-01   7.7904764757531864e-01   7.6488823164297459e-01   7.4492795807139667e-01   7.5738368695732172e-01   7.5592965564999104e-01   8.0119465700210424e-01   7.9920560061759527e-01   7.8443973371004772e-01   7.6153000128377268e-01   7.4951923473598259e-01   7.6502584246143834e-01   7.8006829205786232e-01   7.7142531695096950e-01   7.8354549075122382e-01   7.8366743705274378e-01   7.2642151705143632e-01   7.3783634472008952e-01   7.1110702850434415e-01   8.6415671090240809e-01   8.0268241967286369e-01   8.6211489614744707e-01   7.6459334325185213e-01   7.4953969171400803e-01   7.7443457724803444e-01   7.7248885111084720e-01   8.0198989629513229e-01   7.9414866171461573e-01   7.8362824480196769e-01   7.7794992400396712e-01   7.7394320695988206e-01   7.7048943968120887e-01   7.9813819051897161e-01   7.5951519300103332e-01   7.9347429380870838e-01   7.8413737853028942e-01   7.7466117520030708e-01   7.7945707532168806e-01   7.7460693685081650e-01   7.5792155969377040e-01   7.7142449360077259e-01   7.9481656274780588e-01   7.9149163270840706e-01   7.9930847781315739e-01   7.8248487494900121e-01   7.1845572190375195e-01   7.5397133035504149e-01   7.6408969653663050e-01   7.3933495249047410e-01   7.8356474817671551e-01   8.2480518720955998e-01   8.2592572276765974e-01   8.1266660339110874e-01   7.8807815709645779e-01   7.6684789996387281e-01   7.7952575116707157e-01   7.7690537462955733e-01   7.3981662650693292e-01   7.6264116041335606e-01   7.7553222238549335e-01   7.7734608988579268e-01   7.6898133182994644e-01   7.3835575425029754e-01   7.0331662607668177e-01   7.7290740924768231e-01   7.7521540337199624e-01   7.4285849425572426e-01   7.6390128617701247e-01   7.4875185998154947e-01   7.5391817920210602e-01   7.6065095722495779e-01   7.5905370400443717e-01   7.9055818290497204e-01   8.0501082107050081e-01   7.8091578601255573e-01   8.0696112310993284e-01   8.1588725233363268e-01   7.8330828984842760e-01   7.8369045292553452e-01   7.9393235193029832e-01   7.4672710272064191e-01   7.3835264249436194e-01   8.3024435301671740e-01   8.2929498217643516e-01   8.2835300097664588e-01   8.6218056377859098e-01   8.6055219597407240e-01   8.8005650608978536e-01   8.2718418264382776e-01   8.3340134753854189e-01   8.0972725191244876e-01   8.5033830625255880e-01   7.9448673248756485e-01   8.1864091933448013e-01   8.2965272102734133e-01   8.1542770817397803e-01   8.1160851878981233e-01   8.3318454875792347e-01   8.3016386614101989e-01   8.3574360124629787e-01   7.4923986456005565e-01   7.3747275107922983e-01   7.7159779602724177e-01   7.7595997934853589e-01   7.8501620121389515e-01   7.6562109527811328e-01   8.0019242357108888e-01   7.8801997710140559e-01   7.5630842313760849e-01   7.3770766398529097e-01   8.2765116854223353e-01   8.3431457539833198e-01   8.0315216676001766e-01   7.8945098646750200e-01   7.8468272727236854e-01   7.7282561399223082e-01   7.8004597326957570e-01   7.9411297156599525e-01   7.2461533739381223e-01   7.4072098358168792e-01   7.3875704269336040e-01   7.4702438757672907e-01   7.1067144732982013e-01   7.0451126598414726e-01   7.2495940309002238e-01   7.5505057609390469e-01   7.5651588672923231e-01   7.3832941448378209e-01   7.5968334509751456e-01   7.3859198377920399e-01   7.1173749210270565e-01   7.3660974801506018e-01   7.4893647587253298e-01   7.3516374608195945e-01   8.1582596804383145e-01   8.4853897226000019e-01   8.3166828830189032e-01   8.4790150656593422e-01   8.6670709041066185e-01   8.4512779069998067e-01   9.1710938123582808e-01   9.1684806085577264e-01   8.8299316862103505e-01   8.6354895143321120e-01   7.6796813111484630e-01   7.3946802363258846e-01   8.0034388384981203e-01   8.1673796725906356e-01   7.8396942860968888e-01   7.8896572080322447e-01   7.5506442402616236e-01   8.0095846543494709e-01   8.0948851740079364e-01   8.0521367408384026e-01   8.4721884238107181e-01   7.8108820822516589e-01   7.7511358857659496e-01   7.8928257043885552e-01   7.7996999399463307e-01   7.8809535360289584e-01   7.8818480757089693e-01   8.2006026453149961e-01   7.9489597294632308e-01   7.1217823540975278e-01   7.3798081477534661e-01   7.6453302312654159e-01   7.4366903271992801e-01   7.2972447913567107e-01   7.5169228153191348e-01   8.0999170144257970e-01   8.0902539401344375e-01   8.0023471959074099e-01   7.9118081102290538e-01   7.8430117717084635e-01   7.8140026777198945e-01   7.8385942541606812e-01   8.4523071082503409e-01   7.7831545012809322e-01   7.4622466137487575e-01   7.4080904738113640e-01   8.3215026212886756e-01   7.6450283607772773e-01   7.8821875666869556e-01   7.0314648150681869e-01   7.3075410757864789e-01   7.9776221949493908e-01   7.0288659538986920e-01   7.3055567485503758e-01   8.0882409541223743e-01   8.1548681092772513e-01   8.0572313466771250e-01   8.2165551456665986e-01   7.9382015035423126e-01   7.8582349781004768e-01   7.7574290817819014e-01   7.9898814989792855e-01   7.9177717222806321e-01   7.3909940139606889e-01   8.4845071199543542e-01   8.3220989229690712e-01   8.2284478398858896e-01   7.9976181828890824e-01   7.5780243077409459e-01   7.7659337199754030e-01   8.3491500456758405e-01   7.9908637668929694e-01   8.1022678047718633e-01   7.5805122711926587e-01   7.9950864269368005e-01   8.4762056830020682e-01   7.9845616088294535e-01   7.8516004981725618e-01   8.0834775624228050e-01   8.0139207134608148e-01   8.4489949936211084e-01   8.2078734756519056e-01   8.4895372046936757e-01   7.7067922380589415e-01   7.6332384831661126e-01   8.6533877715601315e-01   8.3180493593037008e-01   7.6492032687950950e-01   7.7269796026213333e-01   7.5663630730883735e-01   7.8869594965963541e-01   7.8175368461356776e-01   7.6583259676538473e-01   8.0883659648806816e-01   8.6030103336876662e-01   7.4978942055010755e-01   7.5311343652630069e-01   7.8464093678108937e-01   7.6662933556860635e-01   7.9229460455208256e-01   7.5607913251676995e-01   7.6451888999150608e-01   7.6350693082373644e-01   7.5253379393579556e-01   8.1395054705636183e-01   7.8954020438596084e-01   8.2775381569138207e-01   8.0819063210464093e-01   8.1699971861392784e-01   8.1439076988836412e-01   7.6364899069745373e-01   7.9319844056072131e-01   7.1987441103340655e-01   7.3678610359678198e-01   7.7432423483341251e-01   7.7720286518293058e-01   8.1731556519131898e-01   7.7737505908158755e-01   7.9101766445777189e-01   7.1264405860550384e-01   7.4686710348831398e-01   8.0914608041662883e-01   8.4434910573579114e-01   8.2664986293526010e-01   8.6185583609542571e-01   7.6309427567150079e-01   7.5158665564307459e-01   7.4540229151641213e-01   7.5844572061320659e-01   8.2786934305216031e-01   7.9146251987782068e-01   7.9107253640421449e-01   7.9784377130530892e-01   7.9349771098548183e-01   7.9273869978901301e-01   7.9831279657350174e-01   7.8710793067595086e-01   7.9366810959023959e-01   7.7874955747664587e-01   7.7028412209572295e-01   7.6526765526176599e-01   7.8270434013210566e-01   7.8653208967668498e-01   7.7758039536309109e-01   7.7925040665259282e-01   7.9622660470170536e-01   7.7925133996275864e-01   7.8301981035198753e-01   8.6004894530697340e-01   8.2234042429010801e-01   8.4226978463493340e-01   8.2387773373011786e-01   7.7762649957320096e-01   7.6479765186144122e-01   7.9804030466049114e-01   7.9278526890640333e-01   7.8007543946104407e-01   7.7560641983954048e-01   7.8121854728472895e-01   7.7053859871309804e-01   7.5575121155977765e-01   7.7863824334898879e-01   7.7734128717678375e-01   7.7223853779352714e-01   7.5718696694140009e-01   7.3825323916339747e-01   7.7206901222660118e-01   7.8750958644387337e-01   7.8756910524230705e-01   7.7823295034645223e-01   7.5387703615582891e-01   7.6638121547832616e-01   8.6531202754850067e-01   7.3053416586650044e-01   7.2998937260264263e-01   7.7601819769252300e-01   8.3569560663712195e-01   7.7480311624033760e-01   7.8345421588534159e-01   7.9895402897766199e-01   8.3007727096204698e-01   8.0821628393996803e-01   8.4791836621836136e-01   7.7386313434539211e-01   7.8159513464653751e-01   7.5282081668835910e-01   7.5434184202693833e-01   8.4782166525423863e-01   8.2587039701775633e-01   7.7579857387438800e-01   7.9631722199090349e-01   7.8100223180026529e-01   7.4915427406750934e-01   7.4895624722313625e-01   7.7440264504040557e-01   7.8392806783851787e-01   7.6105102381569456e-01   7.4856149760702639e-01   7.9599132055519461e-01   7.7674097071364745e-01   8.60013794322959