<?xml version="1.0"?>
<VTKFile type="UnstructuredGrid"  version="0.1"  >
<UnstructuredGrid>
<Piece  NumberOfPoints="1109" NumberOfCells="1972">
<Points>
<DataArray  type="Float64"  NumberOfComponents="3"  format="ascii">2.768082753167432e-19 1 0  3.356558081045157e-19 5.148649939565321e-19 0  1 5.00227986344181e-19 0  1 1 0  0.8798092905048155 0.5463145300592747 0  0.8831487969359597 0.4999616757699885 0  0.8798639453393869 0.4537177622568448 0  0.870224937432731 0.4082099582572242 0  0.8545213671119799 0.3640827897785284 0  0.8329215893892552 0.3217008988773779 0  0.8058258249131142 0.2813380753486909 0  0.7738696091287747 0.2437072555175337 0  0.7378509522292906 0.2095915404596027 0  0.6987529554550602 0.1799695429763103 0  0.6573140954429825 0.1555570023384941 0  0.6140173384948533 0.1368689434147565 0  0.5691157567330284 0.1241504412461822 0  0.5231522813570575 0.1177346240066686 0  0.4768290648027083 0.1177094029822567 0  0.4308563767381671 0.1241478311592134 0  0.3859695958826865 0.1368655769758244 0  0.3426534388637975 0.1555895874522895 0  0.3012462292637145 0.17996207223471 0  0.2621615882917888 0.2095747457449941 0  0.226125830856628 0.2437015653286582 0  0.194141759743162 0.2813686435859011 0  0.1670942247527146 0.3217229025899585 0  0.1455079352411325 0.3641296808880656 0  0.1297497868994303 0.4081911241015718 0  0.1201595412354441 0.4537235646906246 0  0.116874348992001 0.4999407885259314 0  0.1201057222334422 0.546267315529109 0  0.1297615527121989 0.5918074607719056 0  0.145473772563609 0.6358914481048785 0  0.1670677117420045 0.6783089026251798 0  0.1941726372555627 0.7186680161349206 0  0.2260702462061569 0.7563387092662753 0  0.2620988518493042 0.7904212176813307 0  0.3012738540435373 0.8200297236729971 0  0.3426828710895082 0.844448164041926 0  0.3859917916143714 0.8631256925611712 0  0.4308605928384383 0.8758055217978594 0  0.4768102314635452 0.8822700287750704 0  0.5231320344363865 0.88229125863872 0  0.569141939948015 0.8758456506730919 0  0.6140574006155538 0.8631174655523666 0  0.657346262674097 0.8444329604007292 0  0.6987293228416721 0.8200860900616678 0  0.7378919945151238 0.790450949306636 0  0.7738599008902177 0.7563346651283116 0  0.8058808556747471 0.7186696911619207 0  0.8329454964466954 0.6782964767630277 0  0.8545287793610097 0.6359139229071852 0  0.870243933184593 0.5917876288584147 0  0.5 1.732463940808982e-18 0  0.5 1 0  1.305994586698416e-18 0.5 0  1 0.5 0  0.25 8.161114693071284e-19 0  0.75 1.794797404230948e-19 0  0.75 1 0  0.25 1 0  1.343965642209162e-18 0.75 0  7.163621936552399e-19 0.25 0  1 0.25 0  1 0.75 0  0.375 9.004652406722781e-19 0  0.625 2.227556010064807e-18 0  0.625 1 0  0.375 1 0  7.411020049796892e-19 0.625 0  5.188196274382817e-19 0.375 0  1 0.375 0  1 0.625 0  0.125 7.775001296463159e-19 0  0.875 1.178096169103588e-18 0  7.944237750723323e-19 0.875 0  0.125 1 0  0.875 1 0  1.102085041691379e-18 0.125 0  1 0.125 0  1 0.875 0  0.1527028290762467 0.1295252205881725 0  0.8472936760123924 0.8704404320903414 0  0.8473047773660829 0.1295163446783413 0  0.1353703015937001 0.8646125824513758 0  0.9199035837175941 0.1940528375606919 0  0.1006084222653615 0.2166032841938648 0  0.8993888164848979 0.7834279083701544 0  0.09854326631243396 0.7518487042389523 0  0.2266928493025799 0.8994795321094129 0  0.074173975842735 0.07417598503019496 0  0.0625 1 0  5.485670778009444e-19 0.9375 0  1 0.0625 0  0.9375 8.85339501906296e-19 0  0.9258075090311008 0.9258285193921002 0  0.7225420236554233 0.08943494376448584 0  0.2774747590811948 0.08944954287752523 0  0.7613554092997019 0.9020298305943766 0  1 0.6875 0  1 0.3125 0  0.07571478386890154 0.3033132310807211 0  1.201662398136566e-18 0.6875 0  0.1875 1.362895484130112e-18 0  0.8125 7.39762566385107e-19 0  0.9128135162064692 0.2759224223495094 0  0.3125 1 0  0.6875 1 0  0.9183161703418362 0.08168285320827838 0  0.9178450470997249 0.7077771241328257 0  1.15436033110466e-18 0.8125 0  0.07788581831722664 0.9221109412712178 0  0.0680010254532096 0.8385404232946299 0  0.8431316095465295 0.2044294845184944 0  0.2985801443011651 0.9189681494225059 0  0.6646540343982168 0.9233821286142586 0  0.9171965022416857 0.8539778234179086 0  0.08281688983549937 0.1459680624730848 0  0.8125 1 0  0.06841889352564631 0.6507924151424793 0  0.9281969290119674 0.3395221795836932 0  0.1965014477542151 0.8239083884474951 0  0.6569957786155005 0.06795122870522377 0  0.3125 1.167054144036956e-18 0  0.3491619871274627 0.06798584519958886 0  0.2264736446330086 0.138361549347029 0  0.7959443463016095 0.07814498030051276 0  0.1598241226148702 0.9319910792179942 0  0.5625 1 0  0.4375 2.204889521660982e-18 0  0.4375 1 0  0.5625 2.106113935961928e-18 0  0.1904374914477494 0.07290486904085779 0  0.9284995305100869 0.6365606419860123 0  0.7799262991220107 0.1486821148107188 0  0.8231578806261345 0.9323337591420905 0  1 0.4375 0  1.021522465042315e-18 0.4375 0  1 0.5625 0  2.766999239404198e-18 0.5625 0  2.297533459746001e-18 0.3125 0  1 0.8125 0  0.0625 1.025361374511414e-19 0  6.544563328593771e-19 0.0625 0  2.234178600462725e-19 0.1875 0  1 0.1875 0  1 0.9375 0  0.9375 1 0  0.6875 1.33849213277183e-18 0  0.1875 1 0  0.7998555948852984 0.8200816181148161 0  0.1671856263865058 0.198788202379436 0  0.8585266679947893 0.06462243215508084 0  0.1574485471113621 0.7761491397365803 0  0.359067204728986 0.9319631571362156 0  0.9367729668650616 0.4183836467593171 0  0.06324761225815137 0.5816523273388 0  0.05977171256409431 0.4095866570074024 0  0.5905349776131565 0.05808644608504866 0  0.6070112134074962 0.9327377434827663 0  0.405859893511139 0.06012014148963003 0  0.05824575802128246 0.7094105519236841 0  0.9437483531641663 0.5301019756541709 0  0.05624443157947169 0.4698792691363099 0  0.125725825357464 0.2726975921957501 0  0.1324493672547173 0.07152221013413521 0  0.942200245667268 0.584281744895674 0  0.7061341126546491 0.881841709487011 0  0.7232076001426364 0.9427206882614469 0  0.05699138420625736 0.3545605248198069 0  0.938536761099542 0.1364117051101908 0  0.4139705045829803 0.9412441523698483 0  0.5384275697473215 0.05662902360670521 0  0.4698021558701623 0.05293151974965449 0  0.4664818162051058 0.9455573925862629 0  0.5302095696461464 0.947053303287386 0  0.8662578422236058 0.7327412334221305 0  0.8392664866638516 0.7808041398175405 0  0.04579863708952141 0.7770762256436612 0  0.7484995963272653 0.8461707129074746 0  0.2437141834443904 0.8447555467028124 0  0.04540987692947682 0.2228856476187297 0  0.9444638458188278 0.7561839710522906 0  0.9420677631560159 0.4731493932603112 0  0.05795238767753964 0.5268578286753496 0  0.8729782607137132 0.9196923914982006 0  0.8608127003403597 0.2552893472515203 0  0.1098414267947115 0.6818884986290398 0  0.7772373280402112 0.9562329816340943 0  0.1078489176882877 0.800922756290134 0  0.1809815374220385 0.8830113788260299 0  0.2228221255032642 0.9554216890270818 0  0.8718559008530267 0.8242736214180622 0  0.8890776979604261 0.1560566060942629 0  0.9493484771968658 0.2342932386784419 0  0.9460405079708627 0.813434156583756 0  0.235984681803077 0.05187929841763063 0  0.2827736220996921 0.8711402773129979 0  0.7976505927954451 0.8709197364544945 0  0.7151316835616609 0.03909303710876187 0  0.2848736977205983 0.03909036605468896 0  0.7601175963345387 0.0488211970895864 0  0.8998073517764961 0.03891242420687714 0  0.03670606345791131 0.1592844585009211 0  0.12749917796717 0.167870814793342 0  0.9537579802139547 0.2982391886037017 0  0.1358396301735703 0.7176197693799581 0  0.9650476190472657 0.09599908302711214 0  0.2147929984610473 0.1954668559241653 0  0.04864016115602719 0.8845691889936368 0  0.09599526696782341 0.964873489290909 0  0.159098166045161 0.03486746670368665 0  0.8827431904361133 0.3238894366154572 0  0.7847267348049823 0.1959893291348589 0  0.09926709570130672 0.03675627537391865 0  0.03417890188450761 0.09592817271907693 0  0.8978869424579415 0.9610289464555136 0  0.9658437207735123 0.9040697295995919 0  0.1072169302599967 0.1086602964119882 0  0.959860220473752 0.9598635402996915 0  3.716822090603796e-19 0.03125 0  0.03125 6.250999733820188e-19 0  0.9542205617856143 0.04577963758843511 0  0.04297779822379741 0.9570256977714637 0  0.8952682350266902 0.6661359618053713 0  0.1469759655552927 0.8203932881530629 0  0.1445793892114218 0.2348910984895872 0  0.07777239169081686 0.2592735751845663 0  0.28125 1 0  0.2660883501109241 0.954181357626381 0  0.09178538583679847 0.8727762978763326 0  0.6792490664258743 0.1086302048382779 0  0.7333407063911035 0.1387939977008873 0  0.3224851974837177 0.1063901043245897 0  0.272219502486803 0.1377746460653584 0  0.9135558232337584 0.3820619010873499 0  0.8183415702067528 0.164607183785991 0  1.467916642405447e-18 0.28125 0  0.1213014400015093 0.3130517582685809 0  0.6422886840504423 0.9595117089743793 0  0.1846724213528579 0.1612700535979098 0  0.9034946857014595 0.2353239118045992 0  0.9639358159476983 0.7197836333328582 0  0.9485106260027912 0.6773988974662408 0  0.3501304310752463 0.8882011884760154 0  0.2284189198405632 0.09462293372047764 0  0.04255342675066374 0.0425435711754076 0  0.5660071342769971 0.9250121048036434 0  0.1189536566758991 0.9276441858427805 0  0.1010239380683157 0.3736628972808226 0  0.9600724824993884 0.1715914076128864 0  0.8881367082412319 0.1137404259680516 0  0.7598324596819982 0.1023783888049787 0  0.9585518886486718 0.8642363995631573 0  0.84375 9.220928778533196e-19 0  0.8241027048972273 0.04192422117787765 0  0.4987546287309166 0.9199944080015906 0  0.4999797828481646 0.08156897559459922 0  0.9010380220306594 0.8908931971834945 0  0.8167834962942631 0.2400546692925742 0  0.06615089858097603 0.1902399646005377 0  0.84375 1 0  0.8569888675728388 0.9597608119465557 0  0.08795462412703799 0.6131936638780429 0  0.04397872779392539 0.6212980861653036 0  0.3924614301557733 0.9064459154651513 0  0.59375 1 0  0.0417227080733915 0.2764422163672764 0  1 0.34375 0  0.9568351512703185 0.367061057760111 0  0.1854734133864545 0.2360756186185061 0  0.302942
[...]
<CellData  Scalars="dens"> 
<DataArray  type="Float64"  Name="dens"  format="ascii">9.1627928382079604e-01   8.9757551744903785e-01   9.0496363063266017e-01   9.0126825154008716e-01   8.8221037920014234e-01   9.0382961412509333e-01   9.1568423502452667e-01   9.1408365340209186e-01   9.0483250110704205e-01   8.9479666185274098e-01   9.0023922288481539e-01   9.0707327154495565e-01   8.9448466213486766e-01   9.1674934127952368e-01   9.0364610400548917e-01   9.0107028085526719e-01   9.0610427215672651e-01   9.0323245844510736e-01   8.8457778438021473e-01   9.1400039708453173e-01   9.0453932400594006e-01   9.1559413505500153e-01   9.0654812075298519e-01   9.0214310916309248e-01   9.0360023507505138e-01   9.0012814922121764e-01   8.9777562407414291e-01   9.1388561722142059e-01   9.0261028493798878e-01   9.2178209375870979e-01   9.0875513009733344e-01   8.9853320271940806e-01   8.9051068192119398e-01   8.9975286313572556e-01   9.0094344861326192e-01   9.3628729968754998e-01   9.1002040846172050e-01   9.0402034377815943e-01   9.2336164212880500e-01   9.1880211814634138e-01   9.4240710898136826e-01   9.1064908317821969e-01   9.4302366703739349e-01   9.0753513969231436e-01   9.0951683575394737e-01   9.0465419926109569e-01   9.0677053478112957e-01   8.9630647521362572e-01   9.1781963835357616e-01   9.1322363821305275e-01   9.0743149454676630e-01   9.0188693630963612e-01   9.0840469430141424e-01   9.1827702589739157e-01   9.1155486077025438e-01   9.0159527407552265e-01   9.0498985780745367e-01   9.0274006317081268e-01   9.0829943578588335e-01   9.2195947659976185e-01   9.0820825717240872e-01   9.2600565823114356e-01   9.4035408285125577e-01   9.4350685165461468e-01   9.4224003901715470e-01   9.0461893429061491e-01   9.0738494727982977e-01   9.1661526459410403e-01   9.0951461798345878e-01   9.0475237911120221e-01   9.0220445300174268e-01   9.0251622953083588e-01   9.0887246103920283e-01   9.0252060031693493e-01   9.0297787203481650e-01   8.9961438705377561e-01   9.0328739006193803e-01   9.0243707300513121e-01   9.0367737063624143e-01   9.1784604325362229e-01   9.0351356617766709e-01   9.0394866204794788e-01   8.9661665907570132e-01   9.0436437808952419e-01   9.0751754422074127e-01   9.1808386606310821e-01   9.2102398707055677e-01   9.0096481478515122e-01   9.1822894258334442e-01   9.0901013801694852e-01   9.5263695276902449e-01   9.1986270866945297e-01   9.1925940881725221e-01   9.0657665737008430e-01   9.1520754994990694e-01   9.0068361456479706e-01   9.0205185138217991e-01   9.0138012588975946e-01   9.0657115965456780e-01   9.0887015122267667e-01   9.2136010556008829e-01   9.1184354507021015e-01   9.1464913077563537e-01   9.1874549931729854e-01   9.2872187190900068e-01   9.0753275521257992e-01   9.0572114932716763e-01   9.0639541307366844e-01   8.9779339543531322e-01   9.0152975075312691e-01   9.0404697077203022e-01   9.1923690865138785e-01   9.0604950564891162e-01   9.0061051359990651e-01   9.0906759079334243e-01   9.0937197710635420e-01   9.2866801904766083e-01   9.2395094678594880e-01   8.9062642560473948e-01   8.8698065742710808e-01   8.9971075323743666e-01   8.9124665790314983e-01   8.9022564989121422e-01   9.0608043897038704e-01   9.1075626788374275e-01   8.9522906578976857e-01   9.0848744352983635e-01   9.0843271121170621e-01   9.0905338138477942e-01   8.8577575817012388e-01   8.9623780886516136e-01   9.1960264649545154e-01   8.8785696903515199e-01   8.9469909240320900e-01   9.2286263654454492e-01   9.0384657077494479e-01   9.3958965225615998e-01   9.1969346009982067e-01   9.1317326876459770e-01   9.2026110622270030e-01   9.2549442668910209e-01   8.9997868598483211e-01   8.7774762776570203e-01   9.0793269883174155e-01   8.9997801239347619e-01   9.0302214399463221e-01   9.0777820790093211e-01   9.2906315038352527e-01   9.1224490766472188e-01   9.0155721754625950e-01   9.0338814029427805e-01   8.8521260324439854e-01   8.9198118534207627e-01   8.8200287353673745e-01   8.9758973299889266e-01   8.8946277938370877e-01   8.9238218647216683e-01   9.0671345195658426e-01   8.9470716196115663e-01   8.9302806010551239e-01   8.8768713636521390e-01   8.7159116611412690e-01   8.9677001687594915e-01   8.8437178318500986e-01   8.8161501890602056e-01   9.0362263965023293e-01   9.0340018474426298e-01   9.1602916992559669e-01   8.8136621362501788e-01   8.8706173573588987e-01   9.0488161921246579e-01   8.9774173202391028e-01   9.0170520944872079e-01   9.0246964114762152e-01   9.0008555170691751e-01   9.3032031777574831e-01   9.1806402176956703e-01   8.9161936003640963e-01   8.9257427327758443e-01   8.9701639363743024e-01   8.9971737501546911e-01   8.9343197527883822e-01   8.9619211753068018e-01   9.0762616840507315e-01   9.0390852626229445e-01   9.0930545173029897e-01   9.0840707578087465e-01   9.1265426911663061e-01   9.0309006883988119e-01   9.0273128615628950e-01   9.0338361985836946e-01   9.0622424079609343e-01   9.0464415053194713e-01   8.7663919972885107e-01   8.9672478509300846e-01   8.8568112088921946e-01   9.0138977251610619e-01   9.1440794588841934e-01   9.2345453639026764e-01   9.1096181912330021e-01   9.0373959614833366e-01   9.0485057227257870e-01   9.1901903154334907e-01   9.0400249766351448e-01   9.0539039357188933e-01   9.0813775395271135e-01   9.0990892216250929e-01   9.0724672134969864e-01   9.1634099051053430e-01   9.1682224705380344e-01   9.0514549064233152e-01   9.0972470256499149e-01   9.1714716123628715e-01   9.1450347968345458e-01   9.1145251304788932e-01   9.1198455063962869e-01   9.0303517880464657e-01   9.0968648049540790e-01   9.0073366043092884e-01   9.0855044354454395e-01   9.0717764789224686e-01   9.0555131454405013e-01   9.0725911869925546e-01   9.0997307893791002e-01   9.0781263263624412e-01   9.1682165326535014e-01   9.2971825948083819e-01   9.2016292243264786e-01   9.1260073812065334e-01   9.1815769671487957e-01   8.9977339923129740e-01   9.1402192873581878e-01   9.0569605388502061e-01   9.2194567199093769e-01   9.3451803843806314e-01   9.0290584118699035e-01   9.0059563911545149e-01   9.4358114984445784e-01   9.3975687739905023e-01   9.1899798845364011e-01   9.2818948725064365e-01   9.0619887569347346e-01   9.0303561198794957e-01   8.9750935302750257e-01   9.0502404502301037e-01   9.2813702946976973e-01   9.2636370974024995e-01   9.2507164740801806e-01   9.3238098468316966e-01   9.5814689312197343e-01   9.2572566154033076e-01   9.2434714746565794e-01   9.2977654872578730e-01   9.3348312623706364e-01   9.4614641317020554e-01   9.5712637091283870e-01   9.4537371370443668e-01   9.4296301953649375e-01   9.5349205095289358e-01   9.0266355887947869e-01   9.0392377938653168e-01   9.0748824029145947e-01   9.0255138762591403e-01   9.0914991746459262e-01   9.0144096586621170e-01   8.9923179711067081e-01   9.0692499496126133e-01   8.9657878247743195e-01   9.0532841977371070e-01   9.0996260310940513e-01   9.1529000660551030e-01   9.0056420061267572e-01   9.0962237586493577e-01   9.0386595847624607e-01   9.0509421875608931e-01   9.0200172905954878e-01   9.0690014588981904e-01   9.1630293614987790e-01   9.0088096516241489e-01   9.0840300570195520e-01   9.0793800578688788e-01   8.8888315815750274e-01   8.9753833687897433e-01   9.1004869442385095e-01   9.0551961886821930e-01   9.1137133478685328e-01   9.0306505328562681e-01   9.0412261770413027e-01   9.0620978205335789e-01   8.9925938297992170e-01   8.9312718556492676e-01   9.0772054496538179e-01   9.0765757462783214e-01   9.1314727409569540e-01   9.4688569582346060e-01   9.5265766134103602e-01   9.0638676806384477e-01   9.1476666468032741e-01   9.1963706898267028e-01   9.0751047776284743e-01   9.1534697687092681e-01   9.1150502102960507e-01   9.1677438722387350e-01   9.2679010170849874e-01   9.0652622116740533e-01   9.0853534122232604e-01   9.3635163930677789e-01   9.2538178061931509e-01   9.1448867674617085e-01   9.2047750537678830e-01   9.1675287848927800e-01   9.1513323872691610e-01   9.0012234212320952e-01   8.9407516764979100e-01   8.9433234480588886e-01   9.2109921925273575e-01   9.3158449300461255e-01   9.0666014577942655e-01   9.0921423032648985e-01   9.1627716751574184e-01   9.2299937114256936e-01   9.3682146580614978e-01   9.1522067734010981e-01   9.2011897571040879e-01   9.0603057484334237e-01   8.9420596291491672e-01   9.0255148593588130e-01   9.0877875215317261e-01   8.8571123698052268e-01   8.8736899341090525e-01   9.0509336940470098e-01   9.0680534157128778e-01   9.0507153906010240e-01   8.9026733456615992e-01   8.9257230577982050e-01   8.9423243266964736e-01   8.9862232043774271e-01   9.0388403204559609e-01   8.9250505001883751e-01   8.9673446641386712e-01   9.0625182742236587e-01   9.0417731372742882e-01   8.9503255808087367e-01   8.9712540627153026e-01   9.2001943671353426e-01   9.0726374819157174e-01   9.0298405684674943e-01   9.1077974886259483e-01   8.9270467544690635e-01   9.0259181434414160e-01   9.0004363503899976e-01   9.0421271460242658e-01   8.9283322927106190e-01   8.9323459029667374e-01   8.8495904215338872e-01   9.0549102989234287e-01   9.0398474494037695e-01   8.9824396910959370e-01   8.9990012031162669e-01   8.9762390282158278e-01   9.0702337349098383e-01   9.0782192116632032e-01   9.1178957024836116e-01   9.0416979869083369e-01   9.0808517730989713e-01   9.0833685084542504e-01   9.0089253719310680e-01   9.0387982159854696e-01   9.0308198421419961e-01   9.1325789659236645e-01   9.0935524991718841e-01   9.2414092743816600e-01   9.1402496475356942e-01   9.0072633130876234e-01   9.0134627332628048e-01   9.0196933845725280e-01   9.0156014966072728e-01   9.3161022094040524e-01   9.0324515364414970e-01   9.1592536499750177e-01   9.2420885929751717e-01   9.2417343888558756e-01   9.3719077335383816e-01   9.1301202043659480e-01   9.1181976356987771e-01   9.1134520599924640e-01   9.0154201993853733e-01   8.8087240904321440e-01   8.6720227818791618e-01   9.0258093365106828e-01   9.0716202155144510e-01   9.0908712848524975e-01   8.9142322027716192e-01   8.8865731502097589e-01   8.8202221836631434e-01   9.2198641391309333e-01   9.1217640507666164e-01   9.1620864043269357e-01   9.0824050454190219e-01   9.1167604503464517e-01   9.0539289920796695e-01   9.1310978098408024e-01   9.2029516271953682e-01   9.1829527516372811e-01   9.0153370345003081e-01   9.0376200759833758e-01   9.0597370996113213e-01   9.0699959436354927e-01   8.8838324227652687e-01   8.8034319194513044e-01   8.6675495717574913e-01   8.6687708817566245e-01   8.9989660555087592e-01   8.9944497268490708e-01   9.1538511488183738e-01   9.0233170108183636e-01   8.9409799629491427e-01   8.8367965534188442e-01   9.0485276599321107e-01   8.9881047307010686e-01   8.9522300510588437e-01   8.9633746167787764e-01   8.9846783719200463e-01   9.1165240092010469e-01   8.7578527033124665e-01   9.1806813143229804e-01   9.0409600523657119e-01   9.0074309375994754e-01   9.0136060660110984e-01   9.0014629507470734e-01   9.0351618225474450e-01   8.9956716494061284e-01   8.9665616219389099e-01   9.0079716157755707e-01   8.9062706024384419e-01   8.9477794923175225e-01   8.7816288999217429e-01   9.1061253668173525e-01   9.0714173878436644e-01   9.0340724447913145e-01   9.0121547964643767e-01   9.0853901010634830e-01   9.1706604260289581e-01   9.1543449737017535e-01   9.0718767786672605e-01   8.6748918219747662e-01   9.0655690469968064e-01   9.0121159400418749e-01   8.9905071762854116e-01   9.0317532118620591e-01   9.0024091658613425e-01   9.2150951773713163e-01   9.2252450753801563e-01   8.9857645163281097e-01   9.0061472619153360e-01   8.9860378279017361e-01   9.0792970248149196e-01   9.0754237397026116e-01   9.0920755920098750e-01   9.0714391955703566e-01   9.2136042279139951e-01   9.1817006298922521e-01   9.1587658333465138e-01   9.1744271087595231e-01   9.0825825709945418e-01   8.9871048217521254e-01   9.0295321019935171e-01   9.0051041897222728e-01   9.0446117958588634e-01   9.0128148174061951e-01   9.0293131853088704e-01   8.9880027054978651e-01   8.9266532551604461e-01   8.9645189855994600e-01   9.0919296776739178e-01   9.0990697477991533e-01   9.1208403417714035e-01   9.1017373216218678e-01   8.8289417515697644e-01   8.8531470537925561e-01   8.7251472743074343e-01   9.2134158999155502e-01   9.0511432374914746e-01   9.1896902241302358e-01   8.9723246244334920e-01   8.9288589356998727e-01   9.1054320178219417e-01   9.0829962798289710e-01   9.2184196024611942e-01   9.1792936522716129e-01   9.2139952896112076e-01   9.1411029887705220e-01   8.9833831120221286e-01   8.9636766443189875e-01   9.0453262971816550e-01   8.8947965707735821e-01   9.0454233569945486e-01   9.0932039919726049e-01   9.0984441023915341e-01   9.0763526900420388e-01   9.0461484253037305e-01   8.9721137974992271e-01   9.0501609220734613e-01   9.0160576336125642e-01   9.0499034884092622e-01   9.0488800146301396e-01   8.9990444497469635e-01   8.7762936606114772e-01   8.9212198722721647e-01   8.9549884580571104e-01   8.8380496895854899e-01   9.0127536571281719e-01   9.1134640607257233e-01   9.3520128133719893e-01   9.2716069178854066e-01   9.1744936480297234e-01   9.1009785360205442e-01   9.1159635718437426e-01   9.0597526175523446e-01   8.9736167081113138e-01   9.0370291120720214e-01   9.0674530087065808e-01   9.0193952537559519e-01   9.0224690444276223e-01   8.8178459066937054e-01   8.6658807565388396e-01   9.0855392145406177e-01   9.0595087336336488e-01   8.9559143304726196e-01   9.0551913373345916e-01   8.9050146047449863e-01   8.9398195912444556e-01   9.0900970333221576e-01   9.0891195294578520e-01   9.0590745312993259e-01   9.0851222239519147e-01   9.1032071127569936e-01   9.2659575574408770e-01   9.2876580362995853e-01   9.1112411806529303e-01   9.1134987346569185e-01   9.1866729083400400e-01   8.9506840348529559e-01   8.9017450881882032e-01   9.3496003816118656e-01   9.3750271839372079e-01   9.3937350489064320e-01   9.5209428243961969e-01   9.5231316619854978e-01   9.5718442978116069e-01   9.3740342449330127e-01   9.3656871096223415e-01   9.2799603049237700e-01   9.4523458406849548e-01   9.1877611215680510e-01   9.3093616218990760e-01   9.3911220466768397e-01   9.2854582053571666e-01   9.2890273064384665e-01   9.4070114680077366e-01   9.3939211752768670e-01   9.3756233122599775e-01   8.9647625259225616e-01   8.8966682689879595e-01   9.0138230637662831e-01   9.0703895280428182e-01   9.1257829984935035e-01   9.0179253617377864e-01   9.2168763714475255e-01   9.1606080827185898e-01   8.8897726755218320e-01   8.8127593955823491e-01   9.3348753021340225e-01   9.3703535361344725e-01   9.2305663208207167e-01   9.1473648996949697e-01   9.1154013155231950e-01   9.0450023080688779e-01   9.0756192759498633e-01   9.1746857645878110e-01   8.7555488059351350e-01   8.8540907745136066e-01   8.8195571091432068e-01   8.8657069642640374e-01   8.7214543902813346e-01   8.6730722283504103e-01   8.7570760725683205e-01   8.8803594846779310e-01   8.8898870147420284e-01   8.8124318871908691e-01   8.9108849393840539e-01   8.8243267580012097e-01   8.7259971671562087e-01   8.8350174687293870e-01   8.8706191644002708e-01   8.8360973146868960e-01   9.3439322554363924e-01   9.4764964218779080e-01   9.3736816236675213e-01   9.4420147369163465e-01   9.5383639274353027e-01   9.4618874101414296e-01   9.7220734577736490e-01   9.7216163292097058e-01   9.5824995236699229e-01   9.5266357650708988e-01   9.0643076300010617e-01   8.9081931057153685e-01   9.2068397912502797e-01   9.2885613922856158e-01   9.1119698576908792e-01   9.1676378786370893e-01   8.9970505972875492e-01   9.2635648398520276e-01   9.2833462960685953e-01   9.0429707065484244e-01   9.1707707190009002e-01   9.1016430535632442e-01   9.0628643342464676e-01   9.2345664743924472e-01   9.1710296205534703e-01   9.1601204040961903e-01   9.1457170322304604e-01   9.3456940328078020e-01   9.2603991089219173e-01   8.7312767858584051e-01   8.8445882230903317e-01   8.9249200649923166e-01   8.8727477166053870e-01   8.8131431864234411e-01   8.9059099099774508e-01   9.0569732494357347e-01   9.0573553376850868e-01   9.2779481712218237e-01   9.2419862296194089e-01   9.2104227133787842e-01   9.1997085133703849e-01   8.9864739638960367e-01   9.2066170267897729e-01   8.9922650077379285e-01   8.8950460534641862e-01   8.8303557336516791e-01   9.1406258146564112e-01   8.9395278807636447e-01   8.9649150042772485e-01   8.6635467003814448e-01   8.7968800949688541e-01   9.0277628506752283e-01   8.6611961980566532e-01   8.7981706896143086e-01   9.0692219924084794e-01   9.0803728863553990e-01   9.0887085475010221e-01   9.1051378362095736e-01   9.0735660663640405e-01   9.1379807724867190e-01   9.0865346689215121e-01   9.0274892482284730e-01   9.0625944471147113e-01   8.8545306113367617e-01   9.1707592961009987e-01   9.1754760133619973e-01   9.1281932647661324e-01   8.9955353464750709e-01   8.8691951931796031e-01   8.9839670732189192e-01   9.1860661500056107e-01   9.0418139770098471e-01   9.0724654058238263e-01   8.8649097454049697e-01   8.9922656336293316e-01   9.1717434452308522e-01   9.2397623696017916e-01   9.1781253668119500e-01   9.0604614601885458e-01   9.0107624636141304e-01   9.1594705136742904e-01   9.0444642214543969e-01   9.1502484490467773e-01   8.9932945217438109e-01   8.9550386521992897e-01   9.1844908069968012e-01   9.1006677148025261e-01   9.1067046300995513e-01   9.1412275335816218e-01   9.0145992633053340e-01   9.0781935122996216e-01   9.0034466344569009e-01   8.9895327260062374e-01   9.0264502725819373e-01   9.2065287987233979e-01   8.9196315842310836e-01   8.9104028879989017e-01   9.0572626931308675e-01   9.0366978058700131e-01   9.0592725990998824e-01   9.0250646394291023e-01   9.0495139684548676e-01   9.0659024741879313e-01   9.0148760481995005e-01   9.2769439252604091e-01   9.1547932102436380e-01   9.3675317947544834e-01   9.2699247976027810e-01   9.2858731965678953e-01   9.2965690246403809e-01   8.8967463453371698e-01   8.9964889216525312e-01   8.7503282522161285e-01   8.8287270237506044e-01   9.0678398379889891e-01   9.0402772067763371e-01   9.0901060282787727e-01   9.0338562332279793e-01   9.0741206302139554e-01   8.7333869365479455e-01   8.8633102706856526e-01   9.0513541446864076e-01   9.1547557533502522e-01   9.0942195096499845e-01   9.1884403436398243e-01   8.9213787672181954e-01   8.8792360699510264e-01   9.0175835126790638e-01   9.0655694295409595e-01   9.3838883967240161e-01   9.2328740991528380e-01   9.0118503894467739e-01   9.0038467682248702e-01   8.9913036195213347e-01   9.0156274666781633e-01   9.2163034749275052e-01   9.1485850693221826e-01   9.0720280832404565e-01   8.9861082208554455e-01   9.0979045644574708e-01   9.0720932798586351e-01   9.0312457375571698e-01   9.0475588214699176e-01   9.0795597500763703e-01   9.0501110783329686e-01   9.0468923048309680e-01   9.0809422386132110e-01   9.0948667648762094e-01   9.1713110112842477e-01   9.0350552797610295e-01   9.4305155960612996e-01   9.3521379150375017e-01   8.9890962982556433e-01   8.9249160512362447e-01   9.2037188044665141e-01   9.1614162058349635e-01   9.0827938079335024e-01   9.0702305734875333e-01   9.0808545555867048e-01   9.0516386947653138e-01   9.0011927079418375e-01   9.0721191110877142e-01   9.0619445819650446e-01   9.0275159008454531e-01   8.9099251384723965e-01   8.8553671807125423e-01   9.0977086001417351e-01   9.1717510599746044e-01   9.0818518587457220e-01   9.0212208327623944e-01   9.0712439130138067e-01   9.1271667706659676e-01   9.5121559764038188e-01   8.7946184919332193e-01   8.8105710175150342e-01   8.9449190323468586e-01   9.1822662951417566e-01   9.0799339574674887e-01   9.1086115182954530e-01   9.0475929344331218e-01   9.1492507992911676e-01   9.0696782815650978e-01   9.1558051024109921e-01   9.0208717419683870e-01   9.0514129922409758e-01   9.0497496213621353e-01   9.0191508413294008e-01   9.4349415114269142e-01   9.0504525198044627e-01   8.9481218564998088e-01   9.0332927537978802e-01   9.0425238940585062e-01   8.9683808722419844e-01   9.0029273944922605e-01   9.0758013825845796e-01   9.1100776710254872e-01   9.0452473257580746e-01   9.0134352051373545e-01   9.0337022782670051e-01   8.9655183699492447e-01   9.16590495235809