<?xml version="1.0"?>
<VTKFile type="UnstructuredGrid"  version="0.1"  >
<UnstructuredGrid>
<Piece  NumberOfPoints="1109" NumberOfCells="1972">
<Points>
<DataArray  type="Float64"  NumberOfComponents="3"  format="ascii">1.771572962027156e-18 1 0  1.5247237412142e-18 1.601501390868389e-18 0  1 2.223235494863027e-18 0  1 1 0  0.8450034599317016 0.5400533568751433 0  0.8491021607332035 0.4999756498135382 0  0.8450611277812604 0.4599147014247436 0  0.8334955323195967 0.4218637425064604 0  0.8151883922239709 0.3870248144711428 0  0.7908945166690255 0.3548950905532213 0  0.7612910167321143 0.3228421098102101 0  0.7280158276336723 0.2892494923527102 0  0.6937101932425921 0.2550199806356381 0  0.66092884709956 0.2232778263670267 0  0.6291911262941241 0.1962267843089585 0  0.595885364084774 0.1748638842711224 0  0.5593922774332866 0.159781965225834 0  0.520094147223766 0.1520017428952361 0  0.4799345752083205 0.1519732800603265 0  0.4406070556844319 0.1597834485218258 0  0.4041100223759382 0.1748465592073058 0  0.3707242348060863 0.1962901715442919 0  0.3390918286203825 0.2232672800152057 0  0.3063201400783817 0.2549538137955199 0  0.2719712875486721 0.2892124498776099 0  0.2385801319007547 0.3228737907147559 0  0.2091330277515784 0.355000301569063 0  0.1848652518601069 0.3870871954658406 0  0.1664850244279539 0.4218108273638218 0  0.1549654555766813 0.4599763269250988 0  0.1509269805205133 0.4999130501014366 0  0.1548713632137626 0.5400302901537798 0  0.1664873873768325 0.5781194184740609 0  0.1847933927824793 0.6129385337967302 0  0.2090816961444601 0.6451129866694644 0  0.2387154355515574 0.6772122370131028 0  0.2717029672269236 0.7109900377844124 0  0.3060399938660158 0.7450098723000498 0  0.3391451256678885 0.776725222235957 0  0.3707565224186071 0.8037916148421537 0  0.4041381857853103 0.8251136702714796 0  0.4406182253700419 0.8401527265247728 0  0.4799057801906753 0.848006865776188 0  0.5200734501334712 0.8480460481602333 0  0.5593975633430195 0.8402254638601385 0  0.5959510055150398 0.825117426378471 0  0.6292336612545566 0.8037394266442321 0  0.660983909886668 0.7768811575179908 0  0.6939434153940516 0.7451199600457422 0  0.7279989217404148 0.7109649445675414 0  0.7614839604023741 0.6772791118803864 0  0.790975997040349 0.6451075273168919 0  0.8152237587995357 0.6129367195185251 0  0.8334935596906532 0.5781301356989316 0  0.5 5.774879802696605e-18 0  0.5 1 0  3.430686115438042e-18 0.5 0  1 0.5 0  0.25 4.570224228119919e-18 0  0.75 3.55941275539191e-18 0  0.75 1 0  0.25 1 0  5.962140316227407e-18 0.75 0  1.932566164007159e-18 0.25 0  1 0.25 0  1 0.75 0  0.375 4.50232620336139e-18 0  0.625 7.958646715571349e-18 0  0.625 1 0  0.375 1 0  5.558265037347669e-18 0.625 0  2.905389913654377e-18 0.375 0  1 0.375 0  1 0.625 0  0.125 3.887500648231579e-18 0  0.875 4.712384676414352e-18 0  1.058009074361078e-18 0.875 0  0.125 1 0  0.875 1 0  3.463088625471514e-18 0.125 0  1 0.125 0  1 0.875 0  0.174629960814064 0.1509330145482569 0  0.8253402850536146 0.8489423016568868 0  0.8254004482919336 0.1508995992882958 0  0.155974117136845 0.8439638200164258 0  0.904213016568986 0.2109482113333477 0  0.1213439678793309 0.2379199832083092 0  0.8786353655257239 0.7622028904621673 0  0.1203973931819555 0.7308081482361932 0  0.2481445655211581 0.8782993414504523 0  0.08296461777687968 0.08298399721596399 0  0.0625 1 0  2.458532704080145e-18 0.9375 0  1 0.0625 0  0.9375 3.737777485243535e-18 0  0.9169717077264877 0.9170459828778857 0  0.7039874066116206 0.1104728844024798 0  0.2960819134761155 0.1105158232134806 0  0.7403368226224911 0.8807828402178668 0  1 0.6875 0  1 0.3125 0  0.09447037855747188 0.3178941519517643 0  3.495745158215464e-18 0.6875 0  0.1875 2.516114739932514e-18 0  0.8125 4.227214665057754e-18 0  0.8923641241228147 0.2940266319991857 0  0.3125 1 0  0.6875 1 0  0.9082950226984847 0.09170082454731561 0  0.8979641310935873 0.6913180348452819 0  3.402332483889853e-18 0.8125 0  0.08734657308670074 0.9126372721054777 0  0.08015195129426747 0.8248425038211115 0  0.8129009253386426 0.2347752541246493 0  0.3144757402350701 0.899124082170401 0  0.6516651146243039 0.9034539924543183 0  0.9032158470223457 0.838616599356788 0  0.09685737199448771 0.1612107412671225 0  0.8125 1 0  0.08655537589931034 0.640146584107526 0  0.909446884287799 0.3514031925275135 0  0.2289277518775545 0.7914614449575887 0  0.6460118654622466 0.0858098519837527 0  0.3125 4.386376456607747e-18 0  0.3597606776101287 0.08600840509643054 0  0.2551018544359532 0.1670801827198446 0  0.7792584966113268 0.09381193657461746 0  0.17346083027947 0.919891592814168 0  0.5625 1 0  0.4375 5.291734851986358e-18 0  0.4375 1 0  0.5625 6.480350572190546e-18 0  0.2058147865093312 0.08708800268746109 0  0.9092150328991414 0.6263305971552243 0  0.7498095006495782 0.1787892132946057 0  0.8090134543864257 0.9196322617946153 0  1 0.4375 0  3.08131366504567e-18 0.4375 0  1 0.5625 0  3.618228088354996e-18 0.5625 0  2.54567561945654e-18 0.3125 0  1 0.8125 0  0.0625 3.618750498988922e-19 0  1.771799661410022e-18 0.0625 0  3.26384352067598e-18 0.1875 0  1 0.1875 0  1 0.9375 0  0.9375 1 0  0.6875 4.052246340090889e-18 0  0.1875 1 0  0.7663549575606955 0.7866380142476275 0  0.1986026655718596 0.2303106564178695 0  0.8461055310847312 0.0754912162163146 0  0.1895266436252723 0.7441730719376599 0  0.3690599333117123 0.9136967983536266 0  0.9188626502571507 0.4237878543925664 0  0.08117377121647097 0.5762941213357312 0  0.07661802679196021 0.4152190082814742 0  0.5851216965169682 0.07446737087034468 0  0.5994620769482935 0.9140383600924221 0  0.4117043119804284 0.07702724063039149 0  0.07233575710900417 0.69783948214375 0  0.9274899560660176 0.5283490711395576 0  0.07251307703984582 0.4716109184101324 0  0.1547525394428506 0.2991802641199997 0  0.1453889373046025 0.08311795867461837 0  0.9258432105400017 0.5792719311894291 0  0.6819813519232086 0.8532885435269386 0  0.7114472403266048 0.9291622465280606 0  0.07220716707667849 0.3630405594209193 0  0.9283727538966661 0.1481289550348236 0  0.4191717456409225 0.9246378148687001 0  0.5361643891768829 0.07297672950901926 0  0.4713914628877917 0.06822852489702359 0  0.4683120451992005 0.9298133592695785 0  0.5285905718293596 0.9317608214086787 0  0.8357554009712982 0.704446978213821 0  0.8069823927798613 0.7485843065630414 0  0.05550978130167314 0.7669461418177289 0  0.7160183766226289 0.8124815500527557 0  0.2761967306559168 0.8114459702635785 0  0.05505734659774458 0.2329141748880491 0  0.9321949040163225 0.7441382585515881 0  0.9252897888769965 0.4747149037287801 0  0.07473363064461236 0.5253203498790869 0  0.8591322788047973 0.9069851805487812 0  0.8298843866813709 0.2847642493189811 0  0.1375565943579053 0.6611025158639023 0  0.7675419614575051 0.9469516251492875 0  0.1289809016325144 0.7788574439838346 0  0.2035601151600144 0.8613879107581215 0  0.2326710314619884 0.9459591612529042 0  0.848734750688676 0.8004354031694616 0  0.8701655122545696 0.1759732085223559 0  0.9383726248720481 0.2453773725776016 0  0.9355886554881684 0.8017646513499498 0  0.2473227911825307 0.0631620832111796 0  0.3097137068669701 0.840753456232558 0  0.7718651632357348 0.8457266910640168 0  0.7073253103911672 0.04847953423155922 0  0.2926661368908879 0.04847196499468921 0  0.7494875033517909 0.0595403428237159 0  0.8929721541147182 0.0445741246906553 0  0.04333014636519096 0.1671875350070909 0  0.1499247973771191 0.1910748672007491 0  0.9423685741147979 0.3071123935705221 0  0.1677835526385608 0.6891714692520372 0  0.9600501613763347 0.1021040865286388 0  0.2520382053994418 0.2327935287379689 0  0.05611467319168247 0.8757196966619268 0  0.1020843457137961 0.9598583537277154 0  0.1666000464034885 0.04111746611626211 0  0.8529296557763897 0.3457567269702646 0  0.7473604924211936 0.2334961484806547 0  0.1057175309746655 0.04209012164901701 0  0.03906464855713976 0.1018449856420002 0  0.8910303002691662 0.9552891060123589 0  0.9610108547851272 0.8981896219806058 0  0.1221271331290682 0.1236571146387983 0  0.9560707271540451 0.9560799525159939 0  7.433644181207592e-19 0.03125 0  0.03125 1.810634405658261e-18 0  0.9497477221188152 0.05024363158479742 0  0.04709165882211734 0.9529459459719828 0  0.8681393109250187 0.6475844249462178 0  0.1733208002752352 0.7936194212693545 0  0.1751167218049821 0.2649184427463526 0  0.09546990475831452 0.2758067596550377 0  0.28125 1 0  0.2756978440630773 0.9435569370582561 0  0.1060568608855248 0.8576964979199694 0  0.6589096448440319 0.1361842562905316 0  0.7039022235475689 0.1704185638967636 0  0.3422510092310256 0.1334221397087131 0  0.3013530407000719 0.1694899036451309 0  0.8897190958001922 0.3930169251964643 0  0.7891457016286525 0.1936885643917626 0  6.07337930296868e-18 0.28125 0  0.1516132577413945 0.3366592447942146 0  0.6365317525903507 0.9486576728438039 0  0.2138044181270805 0.1901994272853742 0  0.8827001957688753 0.2560366124050122 0  0.9553409375854168 0.7124970657738904 0  0.9353828865440058 0.6683504213008711 0  0.3684350637989898 0.8585270430714482 0  0.2486847192513635 0.1146851704183842 0  0.04662620758758557 0.04660099031531744 0  0.5607704448561082 0.9035399480128961 0  0.1311898025306817 0.9165390569404287 0  0.1286248896769812 0.3875976950011427 0  0.9526478912256785 0.180212341905006 0  0.8723003760120204 0.1296210414404265 0  0.7379112676402043 0.1246729634826133 0  0.9516391782057456 0.8559267810113899 0  0.84375 3.375363195178099e-18 0  0.815037163617595 0.04981044726941397 0  0.4988711029766379 0.8967482292785405 0  0.4999998110337937 0.1052780984355476 0  0.8870652798166958 0.8766313439374164 0  0.778593676196694 0.2774837622253113 0  0.07904495580601413 0.2043973728508363 0  0.84375 1 0  0.8487414028577238 0.95288573287638 0  0.112335938777508 0.6024203517072237 0  0.05602015168511457 0.6158875267397707 0  0.4034827345093676 0.8803800523181756 0  0.59375 1 0  0.05157568239806921 0.2849607821663993 0  1 0.34375 0  0.9451488349833236 0.372854501914293 0  0.2237018867602381 0.2737715288058754 0  0.31042902331
[...]
<CellData  Scalars="dens"> 
<DataArray  type="Float64"  Name="dens"  format="ascii">7.5229406804835142e-01   7.4876076276074233e-01   7.4886528517767503e-01   7.4174537909070604e-01   7.1399094097516769e-01   7.5550877693961094e-01   7.5986496555799754e-01   8.1812868098495029e-01   7.7836289537192405e-01   7.2596945786017630e-01   7.4414072557209010e-01   7.9762973999382702e-01   7.5389664489451569e-01   7.6711778170969569e-01   7.8331727558754316e-01   7.6383442808062441e-01   7.5349572437782208e-01   7.1658129042792296e-01   7.2028807915912130e-01   8.1645320024515244e-01   7.8098898736514710e-01   7.6652017378953863e-01   7.5679072071477238e-01   7.2299835712572125e-01   7.8597450033164484e-01   7.6723357103930090e-01   7.6536751720867535e-01   8.1364573903289927e-01   7.1983929395271851e-01   7.7157489129363377e-01   7.5371834647747804e-01   7.5149473479322326e-01   7.2662585177988903e-01   7.6669288997767282e-01   7.8149318835682768e-01   7.9210868468477980e-01   7.3544304451395559e-01   7.2546160545832639e-01   7.6377304114684830e-01   7.7008466105717155e-01   8.1046146067268920e-01   7.3352151464821835e-01   8.2003637041178468e-01   7.3277853131211468e-01   7.5749886777090747e-01   7.3248288098248659e-01   7.3876267864174439e-01   7.1330547731033989e-01   7.6747604742487663e-01   7.5679182465363359e-01   7.6528566967515932e-01   7.4042739248960343e-01   7.4355409565655883e-01   7.6967807530999766e-01   7.6134345433495554e-01   7.6254926512056698e-01   7.6933201027693876e-01   7.2195703118774457e-01   7.5488086818549660e-01   7.5901538311459871e-01   7.4797105966659816e-01   7.6462281869607074e-01   8.0841835969128617e-01   8.2472630266296965e-01   8.0721275801668579e-01   7.3010038710252467e-01   7.8899241761475092e-01   8.5780294479008479e-01   7.5461859586405311e-01   7.9946717518378518e-01   7.6912921424077008e-01   7.7009086305339258e-01   8.0258430840065287e-01   7.5298883566733543e-01   7.6886518853999497e-01   7.6587771715336694e-01   7.7332001013440477e-01   7.5728127264634792e-01   7.4932107329052966e-01   7.5568350737832335e-01   7.3282164926709881e-01   7.7047993884941068e-01   7.4826505096358231e-01   7.6571014065198606e-01   7.7127785823679307e-01   7.4561198978506382e-01   7.5614315307094637e-01   7.6692619770140746e-01   7.6698552360493377e-01   7.4938229070937956e-01   8.4042678796194803e-01   7.4948292851444520e-01   7.6495682738025217e-01   7.4221430387922449e-01   7.4588501092502513e-01   7.4282249241130593e-01   7.8928545276807016e-01   7.8787703689832267e-01   7.7955882477230443e-01   7.3500802824399969e-01   7.7644480750595435e-01   7.6118178724288754e-01   7.4676999358870122e-01   7.5538972205741173e-01   7.8419060787888184e-01   7.9166904940120209e-01   8.0422508952901628e-01   7.2955247279710755e-01   7.1345965158581270e-01   7.7977127283841785e-01   7.5705389229281439e-01   8.5525122178891611e-01   7.7437641386668743e-01   7.1557906509698799e-01   7.2957137171970998e-01   7.4207876431096720e-01   7.8468115179600517e-01   7.5964704138094652e-01   7.3172670074809565e-01   7.1954687046793608e-01   7.6111627781084989e-01   7.3277918517413476e-01   7.3622835570304557e-01   7.3427021813623994e-01   7.5332108160671618e-01   7.5182471543958651e-01   7.4639767859061190e-01   7.5634731597060234e-01   7.2878832013900652e-01   7.1700982293472448e-01   7.5489539388968230e-01   8.3896184844263877e-01   7.2703544080300997e-01   7.3641814487964408e-01   7.7572257036394454e-01   7.6771003934602156e-01   8.0264228938952054e-01   7.7251711005107604e-01   7.6278306649266503e-01   7.6632355635575056e-01   7.6333351969215668e-01   7.7587518748716011e-01   6.8747373622894115e-01   7.5764377541403916e-01   7.1498386578745099e-01   7.1865305577449667e-01   7.3215156501813949e-01   7.8694839251818727e-01   7.3109360359894016e-01   7.3929376215911968e-01   7.5811106796549932e-01   7.1096769813525573e-01   7.2984745188760602e-01   7.1150563022722080e-01   7.5001962909225328e-01   7.3829984434434681e-01   7.4867213262225707e-01   7.9202255761233165e-01   7.5147802582493772e-01   7.3529102831305249e-01   7.2085862761968944e-01   6.7917484427936736e-01   7.5607414503409009e-01   7.0734756618053651e-01   7.0120513545869689e-01   7.4379082324432144e-01   7.6349177286089953e-01   7.4137276230366900e-01   7.0000599814880049e-01   7.2028403656079953e-01   7.6715282462766377e-01   7.2144050056102316e-01   7.4102067454182752e-01   7.5217530287452361e-01   7.5172813210078149e-01   7.9497063656059475e-01   7.5082436038228140e-01   7.3785368873948376e-01   7.4603299358128572e-01   7.5033761875530647e-01   7.6317108374044273e-01   7.3454788511473668e-01   7.1874625287461946e-01   7.4152342474306010e-01   7.1743690977932506e-01   7.3781979629030270e-01   7.5379373165265184e-01   7.5984170975607057e-01   7.5774689050530941e-01   7.5241508518109945e-01   7.5810509434949658e-01   7.4815245465939240e-01   7.5814337887746097e-01   6.9669849123351968e-01   7.5198266793353630e-01   7.1888582647165644e-01   7.7903894634701742e-01   7.3726490537109490e-01   7.6035126233183792e-01   8.1945489410340822e-01   7.4404057842766302e-01   7.5551013947076306e-01   7.7081939607910388e-01   7.4031936737821114e-01   7.5208818036514513e-01   7.5493884959700919e-01   7.5806437296378482e-01   7.5189752941263688e-01   7.4700360990894243e-01   7.5266766044413758e-01   7.3075661167670902e-01   7.2735853234113124e-01   7.6916278646739189e-01   7.5980305338911014e-01   7.5667365281936283e-01   7.5810254485843120e-01   7.8552094910079584e-01   8.3686949550718293e-01   7.5515788541695861e-01   7.3745961928334192e-01   7.6201129029414294e-01   7.6082592326532983e-01   7.5555012078381234e-01   7.5733161042336639e-01   7.5772278340167987e-01   7.5219442694368377e-01   7.9286486948286450e-01   7.7334080904992264e-01   7.4504675673000931e-01   7.4601437765682466e-01   7.4528667526923087e-01   8.4276952469217037e-01   7.6181435928249452e-01   7.5504037061831974e-01   7.8914809886308923e-01   7.2245661938009398e-01   7.2458013709667068e-01   8.1175147918881585e-01   8.0961603321714104e-01   7.5586195679859458e-01   7.9185135249868144e-01   7.7950310621793262e-01   7.7886514051128097e-01   7.0632992822027330e-01   7.3711679624528803e-01   7.7646758061890597e-01   7.6635430552387784e-01   7.6893193529479198e-01   7.9546007175547007e-01   8.6514159881791264e-01   7.6646222898792393e-01   7.6181953853505169e-01   7.7635891679227398e-01   7.9120477420752167e-01   8.3308462230557823e-01   8.6183242971404239e-01   8.1693949464612969e-01   8.1232509361183991e-01   8.4411180896421167e-01   7.8499828059230670e-01   7.2384138130423548e-01   7.2479117734443943e-01   7.2130295254572319e-01   7.4494628430824006e-01   7.6050124205890957e-01   7.5814265803962921e-01   7.8183057807855205e-01   7.1922044087051706e-01   7.5782539209811195e-01   7.3666469347805519e-01   7.3937656924031803e-01   7.6094290026874090e-01   8.0094597757866304e-01   7.5748813961380523e-01   7.7302747229848845e-01   7.2726594274883616e-01   7.7867082420050437e-01   8.5538423060160640e-01   7.7571664863309697e-01   7.2897494158071652e-01   7.2630934675814540e-01   7.0535156248798991e-01   7.2795649705746912e-01   8.1153184230982056e-01   7.7404649602587539e-01   7.3853699473657186e-01   7.2831512357834416e-01   7.4496683439442624e-01   7.4819884566436523e-01   7.4833646401898646e-01   7.2250107492170657e-01   8.0503323813547978e-01   7.4862055720790111e-01   7.5732771429098933e-01   8.2279602239026994e-01   8.4061109538237910e-01   7.9208727752188357e-01   7.4239295957504914e-01   7.5220131819173119e-01   8.1647537961959060e-01   7.6268357565103784e-01   7.5676940341862675e-01   7.4497107623716807e-01   7.6571427365256994e-01   7.5806306598780493e-01   7.6118744801585048e-01   8.0511065226294187e-01   7.6959698485684447e-01   7.5936074024855238e-01   7.7551691620385810e-01   7.6213128243670081e-01   7.6489447921841924e-01   7.5899515590963906e-01   7.5391261243252772e-01   7.5620296589622871e-01   7.5541158223473848e-01   7.8242091522708423e-01   7.7949163343395123e-01   7.4312118234484914e-01   7.6589615150383739e-01   7.8101616455059331e-01   8.1145493195825780e-01   7.5754844845960323e-01   7.7291782718965973e-01   7.8340440852298054e-01   7.3142882474096060e-01   7.8106956713595410e-01   8.1553069552280921e-01   7.1445301618478907e-01   7.1584369839373130e-01   7.5022621473915030e-01   7.7061809732703579e-01   7.8470647496133350e-01   7.0781995234463146e-01   7.2646744674400321e-01   7.3064677614405660e-01   7.1230306044217284e-01   7.2460258912603892e-01   7.1935723099027027e-01   7.3739275594904619e-01   7.5723660494972322e-01   7.5568995595138033e-01   7.5837192183701774e-01   7.5005855232365048e-01   8.5716220540617805e-01   8.1000778358487246e-01   7.3216882540601869e-01   8.1545009673572444e-01   7.1907379969982421e-01   7.4375367535181081e-01   7.6490603587127370e-01   7.5334952060563309e-01   7.3319753371690732e-01   7.3876825261559154e-01   7.1323451941316873e-01   7.7704308375759179e-01   7.6079649777780189e-01   7.4115024471279833e-01   7.6084121119364545e-01   7.3636965591652281e-01   7.9351174579696504e-01   7.4975948139998472e-01   7.4379008173117855e-01   7.9062815878952286e-01   7.9114979725097045e-01   8.1509249648133153e-01   7.7874116709460905e-01   7.9573313459411676e-01   7.7609445716289527e-01   7.3683019591272514e-01   7.4947905378198254e-01   7.8076882699703409e-01   7.4708870097047353e-01   7.0978913363303409e-01   7.1479997176702392e-01   7.4117741560406913e-01   7.6321694619849179e-01   7.8200169383550788e-01   8.0189835004702248e-01   8.5383869743578422e-01   7.7956149137249053e-01   7.8034819838491387e-01   8.1233522133703062e-01   7.3744611537266402e-01   7.3768135798124690e-01   8.1617429715571921e-01   7.8535089226486510e-01   6.9976576659127399e-01   6.7341352959448364e-01   7.9535346422322351e-01   8.2605654067845946e-01   8.0918431150903403e-01   7.2723970922896064e-01   7.1357700678960934e-01   7.0259178825774893e-01   7.7941592317926223e-01   7.3807976669166586e-01   7.5707186087087486e-01   7.3913329694765872e-01   7.5433941820225037e-01   7.2790521340072623e-01   7.4483296815685951e-01   7.5225444793668428e-01   7.5185166164397910e-01   7.4751377351610049e-01   7.6255510910827062e-01   7.6030992393161323e-01   7.6131038351297331e-01   7.2881233300094450e-01   7.0809113453520556e-01   6.7258580408787794e-01   6.7301454986649645e-01   7.4408755721606512e-01   7.4246305241009924e-01   8.4490691313306987e-01   8.0597758345589920e-01   7.3367184075682512e-01   6.9661758953440611e-01   7.2763172045117341e-01   7.0954637634502971e-01   7.5197620771784879e-01   7.3922805166797889e-01   7.7661030809464171e-01   8.2013676083403397e-01   6.8498564879447132e-01   7.4545351812758831e-01   7.1661369639437777e-01   7.6798706871207556e-01   7.7175621084531132e-01   7.5400033247761500e-01   7.3259263185735191e-01   7.4089284366047226e-01   7.3930700888681777e-01   7.6365246268715070e-01   7.1787614405139966e-01   7.3498776655565146e-01   6.8819150938144957e-01   8.1641766335497079e-01   7.2635664867823935e-01   7.2905268801088119e-01   7.5536901962561642e-01   7.6234467937161965e-01   7.6817654868276097e-01   7.6380400124634162e-01   8.1360014308338102e-01   6.7368994870646415e-01   7.9787394820598323e-01   7.5640456293362168e-01   7.3714954756313278e-01   7.9574414906747692e-01   7.7930716750136009e-01   7.7410532606308402e-01   7.7602030926857080e-01   7.1484261880968225e-01   7.1808032246445774e-01   7.1742631578169846e-01   7.2785790440431353e-01   7.2480872476141811e-01   7.3580486285918068e-01   7.2637091981015678e-01   7.7233069973523816e-01   7.6971534057459634e-01   7.4527018606102791e-01   7.4894493544922758e-01   7.3536211039632815e-01   7.1389229834693591e-01   7.2958983328730853e-01   7.2822863293092532e-01   7.8345081638186842e-01   7.8366632528598046e-01   7.6377810851406225e-01   7.3398006943463323e-01   7.2071805796338340e-01   7.3937550247672512e-01   7.5579183192012733e-01   7.4318529633312735e-01   7.5696952954855889e-01   7.5865444195745746e-01   6.9524134740611365e-01   7.0862718254656742e-01   6.7998567182463232e-01   8.5534146055335680e-01   7.8681855837375025e-01   8.5831095418201031e-01   7.3834776921001677e-01   7.2068695419060391e-01   7.4692719575398969e-01   7.4556864671374679e-01   7.7691414305208117e-01   7.6855790244296540e-01   7.5267163712503393e-01   7.4952755347645506e-01   7.4976455894189697e-01   7.4654708332842690e-01   7.7770755191453633e-01   7.3413822226370973e-01   7.7788315593222079e-01   7.6066535043938355e-01   7.4618073900875959e-01   7.5521548613246703e-01   7.5076858880547859e-01   7.3334323263267620e-01   7.4733783117421937e-01   7.7924838149829778e-01   7.7274280548222463e-01   7.8128374704407544e-01   7.6057774526411870e-01   6.8725141708116155e-01   7.2667166152845908e-01   7.3814879771238784e-01   7.1127603381785609e-01   7.6651125463495273e-01   8.1780797055927890e-01   8.0198144706285757e-01   7.8865196818219774e-01   7.6133329478033651e-01   7.3694662961999235e-01   7.5322247502809780e-01   7.5224779190578506e-01   7.0795691893227974e-01   7.3317841566646025e-01   7.4888544740321406e-01   7.5382852459406946e-01   7.4235849184632041e-01   7.1058257347428322e-01   6.7240856747041655e-01   7.4609725736334276e-01   7.5092157920360936e-01   7.1336357105945691e-01   7.3649367674807831e-01   7.2058990103179998e-01   7.2568990728656357e-01   7.2889388651787845e-01   7.2674630948142405e-01   7.7294541316193577e-01   7.8983910064462592e-01   7.5471448509810790e-01   7.8142750254372872e-01   7.9167764112038175e-01   7.5729383760297797e-01   7.5795844800775913e-01   7.6826034543441746e-01   7.1622884640628559e-01   7.0747234962329375e-01   8.0798434666614805e-01   8.0525679824891649e-01   8.0265967424636964e-01   8.4104544812811211e-01   8.3859988964979859e-01   8.6238227492870712e-01   8.0248489814050394e-01   8.1104182689974580e-01   7.8429061504306175e-01   8.2919218840923770e-01   7.6872115870761026e-01   7.9460071587501746e-01   8.0472070274992402e-01   7.9114504735503166e-01   7.8630125056418942e-01   8.0855168357063190e-01   8.0523620697698883e-01   8.1363516482273435e-01   7.1886418974283595e-01   7.0655530947851697e-01   7.4593641744504335e-01   7.4926653556770972e-01   7.5960846329546305e-01   7.3797657206132783e-01   7.7423477449271616e-01   7.6083958091510628e-01   7.3050343427638320e-01   7.0999677297574149e-01   8.0504130158119991e-01   8.1202675929691159e-01   7.7751889270526919e-01   7.6436194964347770e-01   7.5957451620983996e-01   7.4658655124445394e-01   7.5512454826101616e-01   7.6847022437005519e-01   6.9568432123863899e-01   7.1246318928357499e-01   7.1107299593885498e-01   7.1989458299333675e-01   6.7957410635945703e-01   6.7358519285583307e-01   6.9599844741355155e-01   7.2921665885673237e-01   7.3075112636424344e-01   7.1083808324255526e-01   7.3396029385755690e-01   7.1069161245596923e-01   6.8066006656767830e-01   7.0794173368275082e-01   7.2195163492301573e-01   7.0604274578290604e-01   7.8867708750284959e-01   8.2511016259073677e-01   8.0849091627986835e-01   8.2646803802417046e-01   8.4614104718872774e-01   8.2133463050935041e-01   9.0363339695746947e-01   9.0329439242590281e-01   8.6574542247513275e-01   8.4252964876882452e-01   7.3895853377157417e-01   7.0863690256156997e-01   7.7541966716233224e-01   7.9296178765737901e-01   7.5816783178916947e-01   7.6184331598489541e-01   7.2508323829681076e-01   7.7338394922414355e-01   7.8363942869058034e-01   7.8668237621053938e-01   8.3520452045346893e-01   7.5625077839820332e-01   7.4976106770109086e-01   7.5909657055325264e-01   7.5040082043673662e-01   7.6093965222015436e-01   7.6231000704264840e-01   7.9434936844349724e-01   7.6519347129612969e-01   6.8105315046497750e-01   7.0925829236429105e-01   7.3966974286515219e-01   7.1538653378846540e-01   7.0005307970942865e-01   7.2408432781671883e-01   7.9189248279052360e-01   7.9056174748608921e-01   7.7144416465012955e-01   7.6123226032556290e-01   7.5378336594561068e-01   7.5053008658030163e-01   7.6165542842802259e-01   8.3064327485167533e-01   7.5486207262087535e-01   7.1781987657943680e-01   7.1326394039135099e-01   8.1699306037661201e-01   7.3905154979660137e-01   7.6787850797708201e-01   6.7225478057411903e-01   7.0210515082467151e-01   7.7734786844103665e-01   6.7201197426883630e-01   7.0179694486615174e-01   7.8999800395908970e-01   7.9809846899039183e-01   7.9191382585483405e-01   8.1380225882877444e-01   7.7822790676777931e-01   7.6048090454044992e-01   7.4976836425787530e-01   7.8203254130585198e-01   7.7206242070377284e-01   7.1030044201764353e-01   8.3686713511484168e-01   8.1575493229549545e-01   8.0583937734998912e-01   7.8110959722219186e-01   7.3296715967666692e-01   7.5257580815555813e-01   8.1871573466861713e-01   7.7829904709076803e-01   7.9163843046031668e-01   7.3348245685309921e-01   7.8093699321112509e-01   8.3532062602757784e-01   7.7148517217670454e-01   7.5708218743914879e-01   7.8952400766868680e-01   7.8242915292868997e-01   8.3261204126548838e-01   8.1252075517357025e-01   8.4671174076861677e-01   7.4558708311383914e-01   7.3727924064116779e-01   8.6030882493697935e-01   8.2060632697677494e-01   7.3376003574766302e-01   7.4226228195355415e-01   7.2819674727532457e-01   7.6884113120771713e-01   7.6467486286210296e-01   7.4310852978816822e-01   7.9412333519275835e-01   8.5086225791886383e-01   7.2129440975791470e-01   7.2598296515682759e-01   7.6413402632718874e-01   7.4044613097611789e-01   7.7688142800037308e-01   7.2816090993628313e-01   7.3758374563302176e-01   7.3456458558058879e-01   7.2259857355776369e-01   7.8996380276953837e-01   7.6438340065433974e-01   8.0348177402322007e-01   7.8287865402498358e-01   7.9344000658968372e-01   7.8973524874568191e-01   7.3922504590740756e-01   7.7218764432980036e-01   6.9006169366373371e-01   7.0834650999033455e-01   7.4968376026230277e-01   7.5540236660831384e-01   8.0916380761257101e-01   7.5491312780681319e-01   7.7124359522111374e-01   6.8154202229016592e-01   7.1960486674347079e-01   7.9097754287597410e-01   8.3203949027664403e-01   8.1242901623537433e-01   8.5380548462049832e-01   7.3828024575007833e-01   7.2493371774563897e-01   7.1245118141351460e-01   7.2752915870190915e-01   8.0272177710902470e-01   7.6226607743721131e-01   7.6946424451378537e-01   7.7810505857006151e-01   7.7336639617920500e-01   7.7185627455803851e-01   7.7267011177200329e-01   7.6155335352204179e-01   7.7690003213413561e-01   7.6111246641582653e-01   7.4185265854478732e-01   7.3670514661883568e-01   7.6151508314006944e-01   7.6708479302413013e-01   7.5118843480349984e-01   7.5562236391593518e-01   7.8082770303501314e-01   7.5458255376674899e-01   7.5880093957861738e-01   8.5707162344573073e-01   8.1517602811494194e-01   8.1949338022048490e-01   7.9912941518276459e-01   7.5370791477542709e-01   7.4012084599896910e-01   7.7260824788063920e-01   7.6742395501639549e-01   7.5485486928618561e-01   7.4878710365118262e-01   7.5808082138765065e-01   7.4517101847006539e-01   7.2797876829898034e-01   7.5531852553505630e-01   7.5492046752489106e-01   7.4979797230728684e-01   7.3098159690134590e-01   7.0927173677973210e-01   7.4413880142925370e-01   7.6082001258861565e-01   7.6612187603303117e-01   7.5686789105523478e-01   7.2079430353406004e-01   7.3442930102650028e-01   8.4588486578401112e-01   7.0162790894404847e-01   7.0071617651720286e-01   7.5310454321393605e-01   8.2003199587443110e-01   7.4880253665805308e-01   7.5883313010723463e-01   7.7807196861315875e-01   8.1416207779198668e-01   7.8965793220242697e-01   8.3716174380618802e-01   7.4933699263046349e-01   7.5855445099921615e-01   7.2069170887685685e-01   7.2486168541352347e-01   8.2665327063810357e-01   8.1414257996127326e-01   7.5250185608834141e-01   7.8095035122584022e-01   7.6044684889956926e-01   7.2123101100026010e-01   7.1843953502049962e-01   7.4696493269199216e-01   7.5843931104174722e-01   7.3377925776128872e-01   7.1848962855695431e-01   7.7522102392481518e-01   7.5344119754089278e-01   8.57793432709886