<?xml version="1.0"?>
<VTKFile type="UnstructuredGrid"  version="0.1"  >
<UnstructuredGrid>
<Piece  NumberOfPoints="1109" NumberOfCells="1972">
<Points>
<DataArray  type="Float64"  NumberOfComponents="3"  format="ascii">1.107233101266973e-18 1 0  1.13640650353871e-18 1.281471843991451e-18 0  1 1.445103071660967e-18 0  1 1 0  0.8589775175942808 0.5422972940320648 0  0.8627302270281861 0.4999607469377911 0  0.859039640123424 0.4577043938130751 0  0.8484153071166287 0.4168987329031513 0  0.8314232402207591 0.3783480674330708 0  0.8084643672647108 0.3416702797399251 0  0.7800548143934509 0.3055954243577636 0  0.7474219406824284 0.2699993700613212 0  0.7122608525690479 0.2358245732057674 0  0.6763613838858193 0.2050982270832376 0  0.6401016167406384 0.1793196758745849 0  0.6025850798206527 0.1593073514457864 0  0.5628787577413861 0.1453978903852082 0  0.5211768014507522 0.1382796771790123 0  0.4788265082546546 0.1382518524739264 0  0.437099801272311 0.1453983913244469 0  0.3974047702968195 0.1592953383626127 0  0.3598369139833155 0.1793728519675195 0  0.3236464667646629 0.2050860224461248 0  0.2877678207012411 0.2357800866839828 0  0.2525676469773285 0.2699790593132932 0  0.2198572224449715 0.3056456135306651 0  0.1915626360599195 0.3417444019102606 0  0.1686220044181976 0.3784211107939721 0  0.1515605499000731 0.4168523409078536 0  0.1409866443329657 0.4577456382197584 0  0.1372981793787025 0.4999183719692411 0  0.1409028545880782 0.5422567356602001 0  0.1515683117009603 0.5831101226666453 0  0.1685641937755869 0.6216158646341035 0  0.1915174072631302 0.6583453506826661 0  0.2199473554368516 0.6944363356604397 0  0.2524014095129788 0.7301430843845408 0  0.2875831418342556 0.7642031471982326 0  0.323695469739279 0.7949020278808402 0  0.3598740060566113 0.8206958909516685 0  0.3974311451127051 0.8406764783410569 0  0.4371207648260718 0.8545386374177888 0  0.4788008289107831 0.8617272424564368 0  0.5211540470542271 0.8617630620529541 0  0.5628967863314434 0.8546055028173613 0  0.6026531159838875 0.840674803575189 0  0.6401466960667406 0.8206580610255906 0  0.6763636002752512 0.7950238038857278 0  0.7123997482216944 0.7642763415289977 0  0.747406122635321 0.7301323181621009 0  0.7801928599787972 0.6944648912323693 0  0.8085225310245057 0.6583309802462745 0  0.8314454336459344 0.6216371684615535 0  0.8484239265112412 0.583101283636332 0  5.00512105158321e-18 0.5 0  1 0.5 0  0.5 3.464927881617963e-18 0  0.5 1 0  2.782448575596175e-18 0.75 0  1.932577809711216e-18 0.25 0  1 0.25 0  1 0.75 0  0.75 1.233163828570787e-18 0  0.25 3.264445877228513e-18 0  0.25 1 0  0.75 1 0  2.593857017428912e-18 0.625 0  4.150557019506253e-18 0.375 0  1 0.375 0  1 0.625 0  0.625 4.541619049646693e-18 0  0.375 1.800930481344556e-18 0  0.375 1 0  0.625 1 0  0.125 2.138125356527369e-18 0  0.875 3.239764465034867e-18 0  1 0.125 0  1.094986472996507e-18 0.875 0  0.125 1 0  0.875 1 0  1.311613839197469e-18 0.125 0  1 0.875 0  0.1653426182167989 0.1418962715059239 0  0.8346424313560934 0.8580190264273747 0  0.8346797150068661 0.1418731214287604 0  0.1472552711014217 0.8527014986985073 0  0.910774054067616 0.2038595307716015 0  0.1126621005614256 0.2289987918668274 0  0.8873284653303551 0.7710864930354361 0  0.1112541652999534 0.7394887840128846 0  0.2392042897654078 0.8871657140094819 0  0.07924109017410128 0.07925007598125053 0  1 0.0625 0  0.9375 2.303865349816338e-18 0  0.0625 1 0  9.211587788176253e-19 0.9375 0  0.9207146608354499 0.9207674487438942 0  0.711486371711804 0.1016815349039381 0  0.2885638939418959 0.1017130962342678 0  0.7490457453518937 0.889670950653651 0  1 0.6875 0  1 0.3125 0  0.08664474047743158 0.3121522687689851 0  3.495745158215464e-18 0.6875 0  0.1875 3.564495881571062e-18 0  0.8125 2.959050265540428e-18 0  0.9009099069898058 0.2867135187312159 0  0.6875 1 0  0.3125 1 0  0.9125396152292058 0.08745820847877836 0  0.9062638526494226 0.697873925215664 0  2.778736734516156e-18 0.8125 0  0.08333736882464815 0.9166514463165686 0  0.07507675067133074 0.8306260486712393 0  0.8256465490725278 0.2219550899981567 0  0.6566367485413483 0.911733184567415 0  0.3081813383287189 0.9074069615943716 0  0.9090801907885331 0.8451291583903744 0  0.09096554904100525 0.1547451511472802 0  0.8125 1 0  0.0790383560149584 0.6441616465316742 0  0.9172350965754593 0.3468750961579408 0  0.2152126169047787 0.8051696992100806 0  0.6501753776762983 0.07839919117842425 0  0.3125 3.865248249336611e-18 0  0.3557593716204962 0.07854061961261705 0  0.2430775425123808 0.1550160165317948 0  0.78622824429663 0.08726139676210425 0  0.167702527771241 0.9249467979899605 0  0.5625 1 0  0.4375 3.527823234657572e-18 0  0.4375 1 0  0.5625 5.832315514971492e-18 0  0.1993629732469694 0.08115941920820799 0  0.9171814871145295 0.6301367834499392 0  0.7624954564197099 0.1661208863505668 0  0.8149624455268362 0.9249379149888821 0  1 0.4375 0  6.564537808140775e-18 0.4375 0  1 0.5625 0  -1.17878009249006e-18 0.5625 0  3.222363630708566e-18 0.3125 0  1 0.8125 0  0.0625 1.050784932577118e-18 0  1.686850362575295e-18 0.0625 0  1.826198160378227e-18 0.1875 0  1 0.1875 0  1 0.9375 0  0.9375 1 0  0.6875 3.868286210968327e-18 0  0.1875 1 0  0.7805248691904521 0.8007701591403044 0  0.1853396035421798 0.2169769560276173 0  0.8513687039316671 0.07095033774173352 0  0.1760228013337556 0.7576501438286704 0  0.3653290525623849 0.9212509771896095 0  0.926157484357239 0.4218570968107594 0  0.07387536428459374 0.5782116154274489 0  0.06974408299787896 0.413193591976673 0  0.5870719711436208 0.06778125040224525 0  0.6022064734076161 0.9217039040013865 0  0.4095990937891812 0.07012225011949499 0  0.06644876714691597 0.7024129004510671 0  0.9340498802661432 0.5289648371172203 0  0.06594980215208449 0.4710041904087837 0  0.1426063319648751 0.2883250956362644 0  0.1398963343838535 0.07826053749622706 0  0.9325086344132556 0.5810588433558591 0  0.6917259159149619 0.8652150964799331 0  0.7161389568613153 0.9348304093468733 0  0.06590419819314254 0.359876419549098 0  0.9326151466553193 0.1431615441051595 0  0.4173096213123665 0.9314084901242257 0  0.5369662994167692 0.06637551905837275 0  0.4708362160612106 0.06205140962328694 0  0.4676681453131667 0.9361668439345374 0  0.5291631233571319 0.9379331324267104 0  0.8485337001248558 0.7161258294834009 0  0.8205840116755159 0.7621745064977236 0  0.05145437089788919 0.7711014432578275 0  0.7295897536162275 0.8266342307057873 0  0.2625850555184793 0.8254483697784452 0  0.0510266108723012 0.2287998355024523 0  0.937323206628066 0.7490427941817234 0  0.9320558427181628 0.474164727919495 0  0.06796857926172879 0.5258580871270925 0  0.8650158274146749 0.912323278354205 0  0.8428563677436406 0.2725099472107547 0  0.1260091030573039 0.6692796776980214 0  0.7715133377250823 0.9508285805945954 0  0.1201196753749296 0.7881499438271758 0  0.1940095970549539 0.8704771532330061 0  0.2286346315895235 0.9499122457652694 0  0.8584714681917163 0.8105281922004143 0  0.8781254995918882 0.1675313529505926 0  0.9429583272017309 0.2408458042508426 0  0.9399507540241365 0.8066378612039948 0  0.2426915932171574 0.05844492604445266 0  0.2987258012064825 0.8534650733385079 0  0.7827388960463852 0.8563182665844943 0  0.7104008144422944 0.04455334994948151 0  0.289598051481403 0.04454744311272649 0  0.7538155737222845 0.05505794108445541 0  0.8958798287055734 0.04221619870486451 0  0.0405772920230579 0.1638718371289513 0  0.1404737024373401 0.1812422784126372 0  0.947125865249174 0.3036430138826882 0  0.154414246915296 0.7007987524625185 0  0.9621292629367816 0.09950546121873335 0  0.2363023184429921 0.2170226510443688 0  0.05299826006765198 0.8794810730990064 0  0.09949339107983374 0.961945478948972 0  0.1634600280044759 0.03851842148874927 0  0.8653481150589191 0.3371768411881296 0  0.7631481935495101 0.2176475550268388 0  0.1029730773672099 0.03987012869330173 0  0.0370309528294299 0.0993262247442238 0  0.8939463318013851 0.9576792989382326 0  0.963024576446905 0.9006866028247452 0  0.1158172370137422 0.117306432868067 0  0.957679773615044 0.9576874099534096 0  1.022126074916044e-18 0.03125 0  0.03125 1.207089603772174e-18 0  0.04534339392256087 0.954675313305033 0  0.951645055877782 0.04835139754643086 0  0.8794157101403149 0.6547640968217733 0  0.1622051023950211 0.8049498842014099 0  0.1622846041604134 0.2523225249257 0  0.08807219686675871 0.2690729668683433 0  0.28125 1 0  0.2718565580618374 0.9479997567427512 0  0.1000482359975511 0.8640970481106459 0  0.6668904759868718 0.1247077534441758 0  0.7160695264313028 0.157164719094646 0  0.3345178642851006 0.1221644102820793 0  0.2893489063969646 0.1562040547911286 0  0.8995083879618087 0.3889833043803669 0  0.8014943289821723 0.1814041151661481 0  3.218005253703479e-18 0.28125 0  0.1389683711603169 0.3272725176229025 0  0.6386649050743541 0.9531519707462949 0  0.2014821248788063 0.1779847122862536 0  0.8914005158299531 0.2474406841281374 0  0.9589371958441472 0.7153714151837851 0  0.9408531785269489 0.6718216084968889 0  0.3614681129500713 0.8708159059016627 0  0.2402520105875746 0.1062901251912774 0  0.04489839339866337 0.04487813278927802 0  0.5626336486315409 0.9122385801267783 0  0.1259913006991957 0.9212004391629006 0  0.1172646964520517 0.3824101116520202 0  0.955739022375137 0.1766040373009768 0  0.8790018088564074 0.1228975979447507 0  0.7470074920893606 0.1153443433465623 0  0.9545127998259929 0.859439650495578 0  0.84375 3.061223748540201e-18 0  0.8188248074979696 0.04652216966192225 0  0.4988234319251788 0.9060905068348962 0  0.4999860017663356 0.09575315778220414 0  0.8929715623570641 0.8826763435057096 0  0.7947003675679006 0.2617355381518183 0  0.07366117933670455 0.1984693365472181 0  0.84375 1 0  0.8522183233167547 0.9557445874778387 0  0.1023378142065113 0.6063760061226541 0  0.05105751084707951 0.617866420124118 0  0.399442322603613 0.8910502928752454 0  0.59375 1 0  0.04745381331561048 0.2815813623192949 0  1 0.34375 0  0.9499787779754011 0.3707258255406532 0  0.2075730493500796 0.2578843046437068 0  0.30752
[...]
<CellData  Scalars="dens"> 
<DataArray  type="Float64"  Name="dens"  format="ascii">8.5018310525009322e-01   8.1355158907187475e-01   8.0177013318852541e-01   8.0440479810856802e-01   7.9574631292810039e-01   7.7282776317382396e-01   8.0589621066878514e-01   8.2294294359186337e-01   8.1381965931269751e-01   7.8648979794909213e-01   7.9633073469274707e-01   8.3125109665990560e-01   8.0327931347317472e-01   7.8603636022787138e-01   8.2195878190742910e-01   8.1016439955843278e-01   8.0485668243807851e-01   7.7786307667443888e-01   8.4919714468844332e-01   8.2297322041428700e-01   8.2020677434698908e-01   8.0913665613274754e-01   7.8819577685105890e-01   8.2443870294671728e-01   8.1154690455419209e-01   8.4783708284099812e-01   8.1669861686699208e-01   8.2133258518954078e-01   8.2726094903402603e-01   8.0777468432692112e-01   7.8678422532861481e-01   8.1329436087697737e-01   8.2150082686216186e-01   8.0384570802849065e-01   7.8467298104935168e-01   8.4909494642560646e-01   8.0043677287510695e-01   7.9010303760790279e-01   8.6781426784371829e-01   8.2489274988651196e-01   8.2471579586931865e-01   8.6288793957261234e-01   8.0018553290088001e-01   7.9712992660831306e-01   8.1113008920621743e-01   7.9440672790900524e-01   7.9928350573999241e-01   7.7774898462310171e-01   8.2235801830515731e-01   8.1310037013246372e-01   8.1280434029820736e-01   7.9595309842258954e-01   8.0288602715589141e-01   8.2380522486492080e-01   8.1453551862733320e-01   8.0856450496723131e-01   8.1446704745714471e-01   7.8816399395541381e-01   8.0878550088813939e-01   8.7042978201661247e-01   8.6123877426445294e-01   8.2157149869412627e-01   8.0450132963143395e-01   8.2754192353191380e-01   8.6011049535106820e-01   7.9342724669663811e-01   8.2440174633672858e-01   8.6986302776882762e-01   8.0895185026835614e-01   8.2527872728358254e-01   8.1410132615960373e-01   8.1382763932808178e-01   8.3490002286851472e-01   8.0385940104008224e-01   8.1100187614862118e-01   8.0993723870737122e-01   8.1291342195214511e-01   8.0570947862202824e-01   8.0214661025677458e-01   8.1645380382230404e-01   7.9580446718611142e-01   8.1494728150158602e-01   7.9922760747570654e-01   8.1607205704104946e-01   8.1152885858512713e-01   8.1201957840010075e-01   8.1941005692341162e-01   8.1122093628928238e-01   8.2241782155325716e-01   8.0643827503758392e-01   8.8556945716852908e-01   8.1537972693645877e-01   8.2201051298898375e-01   8.0032595187620326e-01   8.0973022722119270e-01   8.2480876724035279e-01   8.2039529401091682e-01   7.9585366983758121e-01   8.1799072184787880e-01   7.9934276367389756e-01   8.2994915274960857e-01   8.1419472236555557e-01   8.0957912457750270e-01   8.1706626097418955e-01   8.3888660053667896e-01   8.3193434119538001e-01   8.3636898058720488e-01   7.9463582028926028e-01   7.7987406487242317e-01   8.2023913232129553e-01   8.0674836855995613e-01   8.7304498062769298e-01   8.1583144995972490e-01   7.8330556675811813e-01   7.9698344080201833e-01   8.0295115047887655e-01   8.3919552929703412e-01   8.2344016949246890e-01   7.8794332335571360e-01   7.7854309545980172e-01   8.1010763343918035e-01   7.8880654776548065e-01   7.9014640441749162e-01   7.9657245381770525e-01   8.0940075926898114e-01   8.0199950231469375e-01   8.0403020073958553e-01   8.1038995963776905e-01   7.9659688399071016e-01   7.7636761507603202e-01   8.0440833460602401e-01   8.6510343035476722e-01   7.8360964495168606e-01   7.9256900684141773e-01   8.3030673562836022e-01   8.1270662672459970e-01   8.5682029636807056e-01   8.2703200816071076e-01   8.1655801861836586e-01   8.2351818823725198e-01   8.2649786991251906e-01   8.1554135357289259e-01   7.5478396270917081e-01   8.1049290520222472e-01   7.8227551913327220e-01   7.8689053013787591e-01   7.9692398416887078e-01   8.4066119531761474e-01   8.0027910018681703e-01   7.9490893842064347e-01   8.0534175442937694e-01   7.7285262443593428e-01   7.8732414236887449e-01   7.7121796281259247e-01   8.0257560164882735e-01   7.9113053515464349e-01   7.9831413100515547e-01   8.3045851702417195e-01   8.0109618769010149e-01   7.9135405136251602e-01   7.7988555763900524e-01   7.4640400395051976e-01   8.0492777506365265e-01   7.7002093417472661e-01   7.6470757214492380e-01   7.9842583880281937e-01   8.0747216421589607e-01   8.0832844239416668e-01   7.6403930600314174e-01   7.7907280329378692e-01   8.1138568887711371e-01   7.8364039570269772e-01   7.9871867716064693e-01   8.0443893976097691e-01   8.0288054441769796e-01   8.4596973309911605e-01   8.1435745937152437e-01   7.9201628542469038e-01   7.9748054899093290e-01   8.0225183839478242e-01   8.1095374186431302e-01   7.9102860156587262e-01   7.8074268570972560e-01   8.0107255063177540e-01   7.8699763487417396e-01   8.0099129883039299e-01   8.0923529347773548e-01   8.1461583602065002e-01   8.0460009498112539e-01   8.0316511795738732e-01   8.0529611606416818e-01   8.0522190746126887e-01   8.0861741189566194e-01   7.5945798389216101e-01   8.0321702620432966e-01   7.7740407879630913e-01   8.2149595253981578e-01   8.0507624542755518e-01   8.2343324052196454e-01   8.4243616640101493e-01   8.0139866122008518e-01   8.0606617332796582e-01   8.2496801015647270e-01   7.9770467628719588e-01   8.0474774065031207e-01   8.0779852473604885e-01   8.1188478080268023e-01   8.0724076935777411e-01   8.1119925431817708e-01   8.1412883348045073e-01   7.9427890824850733e-01   7.9644924899216307e-01   8.2346762548264263e-01   8.1595653822330827e-01   8.1223584666871251e-01   8.1384939497592224e-01   8.2154455153698758e-01   8.5161957570654001e-01   8.0416814751670473e-01   8.0021791283802890e-01   8.1100310443229084e-01   8.0935876677282104e-01   8.0907394997551851e-01   8.1096154705248613e-01   8.1017104704113685e-01   8.1399843197286381e-01   8.4442907035679404e-01   8.2725899155665250e-01   8.0713872569152412e-01   8.1231668455421502e-01   7.9950582980198082e-01   8.5391392400059629e-01   8.0871168016602513e-01   8.1961113948034425e-01   8.4619788946264840e-01   7.8833028525584048e-01   7.8716229087546241e-01   8.6448948475061649e-01   8.6014846876974915e-01   8.1750464463861072e-01   8.4255707302078242e-01   8.1705491450559553e-01   8.1693613206196547e-01   7.7635357814467365e-01   7.9670007133266540e-01   8.3487006310664347e-01   8.2863444940530750e-01   8.2870793332195980e-01   8.4741867328829390e-01   9.0169865840581664e-01   8.2819725161265545e-01   8.2490726494980848e-01   8.3621893458125673e-01   8.4621551737375944e-01   8.7652204427747005e-01   8.9925538373520264e-01   8.6843854362111250e-01   8.6422631541189310e-01   8.8795701361529988e-01   8.1928333237705175e-01   7.8972275445533391e-01   7.9346895806110151e-01   7.8770356713957634e-01   8.0387831049095648e-01   8.0609398627851725e-01   8.0528205701881062e-01   8.2108174554951574e-01   7.8409857055573307e-01   8.0885204589512294e-01   8.0093862811870520e-01   8.0672629083549652e-01   8.0472474131446836e-01   8.3055372182109710e-01   8.0565204177630678e-01   8.1379017215913296e-01   7.8979457829399069e-01   8.1616176067051560e-01   8.6825902927339327e-01   8.1777582216252198e-01   7.9615039600581994e-01   7.9452955107135903e-01   7.7166428371159468e-01   7.8930170760421781e-01   8.3759153693987010e-01   8.1707165950435812e-01   8.0306323863022666e-01   7.9129205804183145e-01   8.0013688240571146e-01   8.0369821898201277e-01   8.0052102522342328e-01   7.8365499449496467e-01   8.3125862942805973e-01   8.0489607158722820e-01   8.1342355782944242e-01   8.7241947582519663e-01   8.8571652585831806e-01   8.3093402071306388e-01   8.0766099523083612e-01   8.1646542341075012e-01   8.4089876750656734e-01   8.1816061580867439e-01   8.1228653150561558e-01   8.1069698189355455e-01   8.2868492729049070e-01   8.0830436805276995e-01   8.1223309791714537e-01   8.5523366083056518e-01   8.2933736329272512e-01   8.1564015211330532e-01   8.2859328003690302e-01   8.1984356053654761e-01   8.1949784753245747e-01   8.0884414165179097e-01   8.0274527670073825e-01   8.0419793923014282e-01   8.1906999848394157e-01   8.4056888127580653e-01   8.1604293794296900e-01   8.0348544041285797e-01   8.2013708689111064e-01   8.3348196850760514e-01   8.5893802049870549e-01   8.1532143265348078e-01   8.2686134848323467e-01   8.2211537073100327e-01   7.8945485710123153e-01   8.2081884497077506e-01   8.4498437178313257e-01   7.7499616781936231e-01   7.7655443374318511e-01   8.0506557919310451e-01   8.1579516199039182e-01   8.2342235513144735e-01   7.7390053601579012e-01   7.8537069583648433e-01   7.8876639552895422e-01   7.8005989852049928e-01   7.8954324630359818e-01   7.8155548755262383e-01   7.9397601783408522e-01   8.0849218059990957e-01   8.0579480772631307e-01   8.0577243410497013e-01   8.0216598357045910e-01   8.7453378034961693e-01   8.3878474577372009e-01   7.9318228617104358e-01   8.3657286189915914e-01   7.8154918650579386e-01   8.0071800568159412e-01   8.0580951632019948e-01   8.0454606824408459e-01   7.8972496661174074e-01   7.9326759638670385e-01   7.7394258283969397e-01   8.1730945865877880e-01   8.0842567780404884e-01   7.9651247908202305e-01   8.0815861402708367e-01   7.9379066704853496e-01   8.2661394998605464e-01   8.0579087218344470e-01   8.0573272601368706e-01   8.2864524681910789e-01   8.3213875991344366e-01   8.4226580800610951e-01   8.1795014145332434e-01   8.2736037042230626e-01   8.1397890245850468e-01   8.0384656555526612e-01   8.0626471096416485e-01   8.3386877663597225e-01   8.0929093475190461e-01   7.8084199355915462e-01   7.8366883003340881e-01   7.9579829212425612e-01   8.0975193577963678e-01   8.4044969774221889e-01   8.2658815263790097e-01   8.6453108438529969e-01   8.3384855631861510e-01   8.3363950720358893e-01   8.5968608377813505e-01   8.0399595516166555e-01   8.0313639667268821e-01   8.3762362646347965e-01   8.1662485942164897e-01   7.6337987536099872e-01   7.4045976741532893e-01   8.3042734802048457e-01   8.4469793996610854e-01   8.3800295927416046e-01   7.8550713371978886e-01   7.7625018752218278e-01   7.6591172356323578e-01   8.3189475280382441e-01   8.0352418812456072e-01   8.1567761866068822e-01   8.0077393490330950e-01   8.1052960553006692e-01   7.9311634794865427e-01   8.0736149381304911e-01   8.1695797976544482e-01   8.1507621015714782e-01   8.0186969391908847e-01   8.1072288177476259e-01   8.0841052099300381e-01   8.1134981479577251e-01   7.8500542540694485e-01   7.6827988115333545e-01   7.3965993933042873e-01   7.4006537808124662e-01   7.9902928170124066e-01   7.9782316638493633e-01   8.5634074738896471e-01   8.2950668800683935e-01   7.9030700480416249e-01   7.6359652926913713e-01   7.9233697716331641e-01   7.7897698625099265e-01   8.0091784837253421e-01   7.9424485191338945e-01   8.1683804105729840e-01   8.4816901951703982e-01   7.5224901552187629e-01   8.1196882083207045e-01   7.8681662647706097e-01   8.1459544192034095e-01   8.1713747122682789e-01   8.0369244191255551e-01   7.9562443259518090e-01   7.9696432885983071e-01   7.9450877287484145e-01   8.1059386297586344e-01   7.7967737255062031e-01   7.9169988392157098e-01   7.5546859431497226e-01   8.4252669903671451e-01   7.9391076111508829e-01   7.9170743519776998e-01   8.0449349504519785e-01   8.1223444347409235e-01   8.2220203893966493e-01   8.1931485364551870e-01   8.4308262299136949e-01   7.4075752267905048e-01   8.3274946764758084e-01   8.0604925119321791e-01   7.9500853041213793e-01   8.2584782198989526e-01   8.1743939540896693e-01   8.2845154369851548e-01   8.3088916610142405e-01   7.8042493889463649e-01   7.8435081234551618e-01   7.8227115612545772e-01   7.9522606107902216e-01   7.9352970589721583e-01   7.9999604144466963e-01   7.9393931116747174e-01   8.2751160986002947e-01   8.2380248656186783e-01   8.1000656800110249e-01   8.1303771089170518e-01   7.9891937663515655e-01   7.8098519533598143e-01   7.9076425776156378e-01   7.8890183759651666e-01   8.2247168693060435e-01   8.1897672519327469e-01   8.0957447276041117e-01   7.9314200927389966e-01   7.8248575370848483e-01   7.9463254415980289e-01   8.0907898768653119e-01   8.0400703409509688e-01   8.1382384444359379e-01   8.1265792642405732e-01   7.6231551678293730e-01   7.7146665970754302e-01   7.4733262341946438e-01   8.7461292044939876e-01   8.2280000909450302e-01   8.6917153020962612e-01   7.9478080867325240e-01   7.8256459025431191e-01   8.0626123877610600e-01   8.0386296454779926e-01   8.3048881689187337e-01   8.2336678663557927e-01   8.1809721444012706e-01   8.1047092096327411e-01   8.0183084401901317e-01   7.9834807058019996e-01   8.2199973859485298e-01   7.8876263997221496e-01   8.1507774396382060e-01   8.1210006145691860e-01   8.0692004246270677e-01   8.0820648374939075e-01   8.0334851716613165e-01   7.8836779871864116e-01   8.0097635781966270e-01   8.1539709963312390e-01   8.1486835156239446e-01   8.2111127649629123e-01   8.0802744456559139e-01   7.5456470118672003e-01   7.8535167175803111e-01   7.9389370951151894e-01   7.7183670575020669e-01   8.0679450032084032e-01   8.3830317905350527e-01   8.5281630010249232e-01   8.4004480302061524e-01   8.1878207659975411e-01   8.0112483710955262e-01   8.1015358445984875e-01   8.0590708077091633e-01   7.7687383401072074e-01   7.9607380512751058e-01   8.0607358970566478e-01   8.0493068937928214e-01   7.9961246311058976e-01   7.7056687527216150e-01   7.3945578972989612e-01   8.0422429377395499e-01   8.0440521477238758e-01   7.7792268814762233e-01   7.9649928286170835e-01   7.8112186337254064e-01   7.8617054187095525e-01   7.9666894878677452e-01   7.9558549779537702e-01   8.1391234884843111e-01   8.2516345262700486e-01   8.1102932460333077e-01   8.3590321819470514e-01   8.4315844879190549e-01   8.1312841458687013e-01   8.1331062216508221e-01   8.2342092040491432e-01   7.8150316452053203e-01   7.7364568053522442e-01   8.5547960420674274e-01   8.5618092835481818e-01   8.5667979359864688e-01   8.8529842512066725e-01   8.8444551931214599e-01   8.9958371950534233e-01   8.5475036459323961e-01   8.5852088820286354e-01   8.3846736894715512e-01   8.7394719893249406e-01   8.2394044441542380e-01   8.4584420729751841e-01   8.5730203530043536e-01   8.4278185458714727e-01   8.4016048348479078e-01   8.6046140693956286e-01   8.5776985601857447e-01   8.6057500788335595e-01   7.8382884590377910e-01   7.7282607250525326e-01   8.0120270255888393e-01   8.0652537038229555e-01   8.1447427678444451e-01   7.9726362471228096e-01   8.2945147433368260e-01   8.1872491269712067e-01   7.8626268676244704e-01   7.6993102484979548e-01   8.5315573863524297e-01   8.5936069932834713e-01   8.3203592550188044e-01   8.1851146363707594e-01   8.1384263518388367e-01   8.0311197098482079e-01   8.0902008955658666e-01   8.2329514190674546e-01   7.5830785573902215e-01   7.7345540409840441e-01   7.7086570531114995e-01   7.7850186285029233e-01   7.4685839565257539e-01   7.4063931338246525e-01   7.5865317154517908e-01   7.8499783272135393e-01   7.8639851796030014e-01   7.7032183224590189e-01   7.8943765742310024e-01   7.7095276150306669e-01   7.4787072099179097e-01   7.6981329821350641e-01   7.8009723445320811e-01   7.6880622148298905e-01   8.4585960897560264e-01   8.7415595881963115e-01   8.5769747122632678e-01   8.7183087276911442e-01   8.8918669344392065e-01   8.7114971859431090e-01   9.3162502849986195e-01   9.3143192174458989e-01   9.0204627825097594e-01   8.8652086589395773e-01   8.0087710187364114e-01   7.7468845722629842e-01   8.2879807565778074e-01   8.4367495514759916e-01   8.1360060942467038e-01   8.1961850133191771e-01   7.8915214825056157e-01   8.3191809923544757e-01   8.3856106524354701e-01   8.2659465418766631e-01   8.6145427164110155e-01   8.1040390704414211e-01   8.0482138872186171e-01   8.2289466707996040e-01   8.1344612074690226e-01   8.1878196956794635e-01   8.1780814306801897e-01   8.4869131984983937e-01   8.2785683461248549e-01   7.4836370226148163e-01   7.7117151497490666e-01   7.9333040784291975e-01   7.7629786598408901e-01   7.6405028588269142e-01   7.8341623598368615e-01   8.3096396101843828e-01   8.3038083117531380e-01   8.3223686656272045e-01   8.2447822349832234e-01   8.1840747980658646e-01   8.1587874383520564e-01   8.0953389460227976e-01   8.6205869784249622e-01   8.0530472223915350e-01   7.7890091741929535e-01   7.7276624213393830e-01   8.4999493498284584e-01   7.9395283690652085e-01   8.1204958490350365e-01   7.3927340881511672e-01   7.6410586867753560e-01   8.2138982875037381e-01   7.3901190073091383e-01   7.6404193331626924e-01   8.3069524409252360e-01   8.3587238496456528e-01   8.2530326186728054e-01   8.3593266781541320e-01   8.1599635577922192e-01   8.1539024259670978e-01   8.0618876433151276e-01   8.1980123336133970e-01   8.1590524736800407e-01   7.7232238154589461e-01   8.6218587710422323e-01   8.5142075548072682e-01   8.4282026197431548e-01   8.2137485312547431e-01   7.8663609990431249e-01   8.0410645012472937e-01   8.5375291855771074e-01   8.2302760615864590e-01   8.3167467686375329e-01   7.8661290548114216e-01   8.2108020811904880e-01   8.6200424640356121e-01   8.2899837128927933e-01   8.1713378400425585e-01   8.2997358121613096e-01   8.2326914702948284e-01   8.5938804025711757e-01   8.3387844141722234e-01   8.5664770370104781e-01   7.9967228827314285e-01   7.9326761293475745e-01   8.7264587362863144e-01   8.4588219624550220e-01   8.0025128340660978e-01   8.0715117152648908e-01   7.9002196455541673e-01   8.1382178534369098e-01   8.0510072673482669e-01   7.9435857133551924e-01   8.2706940928476369e-01   8.7156832996511857e-01   7.8243619941089815e-01   7.8436865166764214e-01   8.1027163333710728e-01   7.9764268315313780e-01   8.1436981896818206e-01   7.8962008180963095e-01   7.9667458592940910e-01   7.9710325877355870e-01   7.8736732184587921e-01   8.4120041074376461e-01   8.1876163032433247e-01   8.5487112021354228e-01   8.3689397913976205e-01   8.4373164940884371e-01   8.4231885995419553e-01   7.9195907963149048e-01   8.1728413624832419e-01   7.5456400711150584e-01   7.6974967383575221e-01   8.0402775896942713e-01   8.0444193136033160e-01   8.3224285664104269e-01   8.0469966750333033e-01   8.1560843518575343e-01   7.4877930679300031e-01   7.7839725898212941e-01   8.3011204932304539e-01   8.5888457501299054e-01   8.4328665305286465e-01   8.7173172174489455e-01   7.9175038335983206e-01   7.8230422801759070e-01   7.8299265286127018e-01   7.9389218748171930e-01   8.5578104022427859e-01   8.2416935572437178e-01   8.1597282341839572e-01   8.2064890760709930e-01   8.1701678960441471e-01   8.1707175399187049e-01   8.2765340688511457e-01   8.1682836742114440e-01   8.1635814072619584e-01   8.0262863847687804e-01   8.0314013256627914e-01   7.9851881290161875e-01   8.0843191118795610e-01   8.1114201693650212e-01   8.0786930266587009e-01   8.0715094459435632e-01   8.1730150217570241e-01   8.0829232552824593e-01   8.1153113835673485e-01   8.6666331359626703e-01   8.3454276190408039e-01   8.6759852744898469e-01   8.5154355979682927e-01   8.0501964829495287e-01   7.9325354932136083e-01   8.2708585737907658e-01   8.2178974913687464e-01   8.0928702493343441e-01   8.0629977624259386e-01   8.0928291685994069e-01   8.0086243698663429e-01   7.8867615430261773e-01   8.0706368189732214e-01   8.0537328665071117e-01   8.0038055093401095e-01   7.8735995870190978e-01   7.7171815406700950e-01   8.0435468745684835e-01   8.1824149848402283e-01   8.1367057970507684e-01   8.0456490412504955e-01   7.9126347630305272e-01   8.0233263231078344e-01   8.8686802050239788e-01   7.6403825809672854e-01   7.6401315065647790e-01   8.0263637639969243e-01   8.5406582321643687e-01   8.0529061144436775e-01   8.1239304936760071e-01   8.2291397340144279e-01   8.4876834261178324e-01   8.2953368526543148e-01   8.6102709697212532e-01   8.0253813381015837e-01   8.0884798845311523e-01   7.8943456617082419e-01   7.8869905133410512e-01   8.7148161248201317e-01   8.4032014139760458e-01   8.0252609001953612e-01   8.1705380337117461e-01   8.0704823635370926e-01   7.8259218239003958e-01   7.8442283182083661e-01   8.0569710748372581e-01   8.1328015469916759e-01   7.9385041359220521e-01   7.8415128436695059e-01   8.2012769803011643e-01   8.0377473806074240e-01   8.66115968144013