<?xml version="1.0"?>
<VTKFile type="UnstructuredGrid"  version="0.1"  >
<UnstructuredGrid>
<Piece  NumberOfPoints="1109" NumberOfCells="1972">
<Points>
<DataArray  type="Float64"  NumberOfComponents="3"  format="ascii">0 1 0  0 0 0  1 0 0  1 1 0  0.8968458805257912 0.5501332934257217 0  0.9 0.5 0  0.8968458805257911 0.4498667065742781 0  0.8874332644514524 0.4005240451340579 0  0.8719105943553006 0.3527501789261288 0  0.8505226720175453 0.3072985303593135 0  0.823606797749979 0.2648858990830106 0  0.7915874509685645 0.2261811576285244 0  0.7549695958994758 0.1917947028896841 0  0.7143307179915988 0.162268829799194 0  0.6703117166260287 0.138069179013592 0  0.6236067977499788 0.1195773934819385 0  0.5749525258342897 0.1070850997085245 0  0.5251162078117251 0.1007893086286913 0  0.4748837921882747 0.1007893086286913 0  0.4250474741657101 0.1070850997085245 0  0.376393202250021 0.1195773934819386 0  0.3296882833739712 0.1380691790135921 0  0.2856692820084015 0.1622688297991939 0  0.2450304041005242 0.1917947028896843 0  0.2084125490314353 0.2261811576285246 0  0.1763932022500209 0.2648858990830109 0  0.1494773279824546 0.3072985303593139 0  0.1280894056446994 0.3527501789261288 0  0.1125667355485475 0.4005240451340581 0  0.1031541194742088 0.4498667065742783 0  0.09999999999999998 0.5 0  0.1031541194742089 0.5501332934257218 0  0.1125667355485476 0.5994759548659421 0  0.1280894056446995 0.6472498210738713 0  0.1494773279824546 0.6927014696406861 0  0.176393202250021 0.7351141009169893 0  0.2084125490314355 0.7738188423714756 0  0.2450304041005241 0.8082052971103157 0  0.2856692820084012 0.837731170200806 0  0.3296882833739709 0.8619308209864078 0  0.3763932022500212 0.8804226065180615 0  0.4250474741657101 0.8929149002914756 0  0.4748837921882746 0.8992106913713087 0  0.5251162078117254 0.8992106913713087 0  0.5749525258342899 0.8929149002914755 0  0.623606797749979 0.8804226065180614 0  0.6703117166260291 0.8619308209864078 0  0.7143307179915986 0.8377311702008061 0  0.754969595899476 0.8082052971103157 0  0.7915874509685646 0.7738188423714755 0  0.823606797749979 0.7351141009169893 0  0.8505226720175454 0.6927014696406861 0  0.8719105943553006 0.6472498210738712 0  0.8874332644514524 0.599475954865942 0  0.5 1 0  0 0.5 0  1 0.5 0  0.5 0 0  0.75 1 0  0.25 1 0  0 0.75 0  0 0.25 0  1 0.25 0  1 0.75 0  0.75 0 0  0.25 0 0  0.625 1 0  0.375 1 0  0 0.625 0  0 0.375 0  1 0.375 0  1 0.625 0  0.625 0 0  0.375 0 0  0.125 0 0  0.875 0 0  1 0.125 0  0 0.875 0  0.125 1 0  0.875 1 0  0 0.125 0  1 0.875 0  0.1443946775413214 0.1213187937376868 0  0.8556053224586788 0.8786812062623132 0  0.8556053224586785 0.1213187937376867 0  0.1275360334547992 0.8724639665452008 0  0.9261623581710797 0.1875 0  0.09234641934319709 0.2082689144241477 0  0.9076535806568029 0.7917310855758523 0  0.08970099689351971 0.7603836651344988 0  0.2182130526099624 0.9079579669686324 0  0.07086411995581518 0.07086411995581518 0  1 0.0625 0  0.9375 0 0  0.0625 1 0  0 0.9375 0  0.9291358800441849 0.9291358800441849 0  0.7304772975931939 0.08076335202639119 0  0.2695227024068061 0.08076335202639115 0  0.7697819974699807 0.9105968468121929 0  1 0.6875 0  1 0.3125 0  0.06784168511078095 0.2966417331842567 0  0 0.6875 0  0.1875 0 0  0.8125 0 0  0.9212459744619301 0.2681742056774029 0  0.3125 1 0  0.6875 1 0  0.922097136530977 0.07790286346902295 0  0.9261304603587264 0.7150772115644075 0  0 0.8125 0  0.07432186328509671 0.9256781367149033 0  0.06317182982585627 0.84375 0  0.8548473925302104 0.1928285354262928 0  0.2914274450692525 0.9272721924131209 0  0.6710199663399635 0.9319471281137308 0  0.9226595291420543 0.8597667107019437 0  0.0773404708579461 0.1402332892980563 0  0.8125 1 0  0.06054886616517211 0.65625 0  0.9362657027224049 0.3336129027547622 0  0.1841195715992005 0.8363784907223111 0  0.6625377124131507 0.06023416665880475 0  0.3125 0 0  0.34375 0.06016090820395464 0  0.2153846372786545 0.1270381302276244 0  0.8024953780019808 0.07187189600048093 0  0.1546395545758083 0.9367961467266345 0  0.5625 1 0  0.4375 0 0  0.4375 1 0  0.5625 0 0  0.1844766880788185 0.06724298999790632 0  0.9369725282473387 0.6419809811402504 0  0.791523351719164 0.1369023590147849 0  0.8285961364903059 0.9374018659319692 0  1 0.4375 0  0 0.4375 0  1 0.5625 0  0 0.5625 0  0 0.3125 0  1 0.8125 0  0.0625 0 0  0 0.0625 0  0 0.1875 0  1 0.1875 0  1 0.9375 0  0.9375 1 0  0.6875 0 0  0.1875 1 0  0.8126465958421825 0.8329348088176629 0  0.1550798535647612 0.1867680086445373 0  0.8631981559835366 0.06032295929500282 0  0.1449089435554358 0.7884432695884597 0  0.3538206140027237 0.9399564250283491 0  0.944997661525766 0.4151121561005554 0  0.05500233847423393 0.5848878438994446 0  0.0520912947951912 0.40625 0  0.59375 0.05063263303723638 0  0.6113142584645842 0.9411585052804305 0  0.402402637527157 0.05243074290023167 0  0.05237021982595785 0.7146869946988353 0  0.9514280734197595 0.53125 0  0.04857192658024048 0.46875 0  0.1138995451272664 0.2618291859344329 0  0.1276043399716366 0.06698080255494471 0  0.9496852823490703 0.5873315358652272 0  0.7164226875694513 0.8936714072472519 0  0.728445758907293 0.9483406189827143 0  0.05037626111865807 0.3500677784994627 0  0.9425695009311538 0.1320174568820216 0  0.4108317852857326 0.9488345682840208 0  0.5398628985995173 0.04893133705064829 0  0.46875 0.04573672429098317 0  0.4652931800096448 0.9529811055869081 0  0.53125 0.9542632757090168 0  0.8785971272885281 0.7441734326495726 0  0.8518416617605847 0.7931754903661554 0  0.04183404050302509 0.78125 0  0.7612395846848441 0.8595654412716175 0  0.2310588911243982 0.8579303197600836 0  0.04148050284378633 0.21875 0  0.9494864361787021 0.7612608042848362 0  0.9500000000000001 0.4721339993173143 0  0.04999999999999998 0.5278660006826856 0  0.8781553628189985 0.9246252444972441 0  0.8731991046476956 0.2435858407989878 0  0.09811738497342513 0.6912987895906199 0  0.78125 0.9600244726998853 0  0.09951704281279977 0.8094116423849811 0  0.1723930843372325 0.8914409560171174 0  0.21875 0.9592823984315264 0  0.8808053857873319 0.8333253975559158 0  0.8963977713581862 0.1485308906960134 0  0.9538351164349618 0.2296733193971382 0  0.9502525126806526 0.8180081280125184 0  0.2312490385075739 0.04727387874777968 0  0.2715914187620846 0.8835921407480765 0  0.8075381809024645 0.880775593205643 0  0.71875 0.03518728418751645 0  0.28125 0.03518728418751642 0  0.7646042202168328 0.04444036111707996 0  0.9023329991729737 0.03666350737326187 0  0.03401531498238862 0.15625 0  0.1188530488980251 0.1590855287670435 0  0.9585274478449393 0.2940602659505009 0  0.122777080947294 0.7293581095092172 0  0.9670375667902916 0.09375 0  0.2005134857209875 0.1810792546569654 0  0.04567406045797464 0.8878541658538743 0  0.09375 0.966869578205468 0  0.1562008719445321 0.03232788333739163 0  0.8953932105853648 0.3139420780646932 0  0.7990572522972532 0.1815363722387022 0  0.0968875242781685 0.03463409819727443 0  0.03223722036876893 0.09375 0  0.9004223587754672 0.9633108159792649 0  0.9677627796312311 0.90625 0  0.1015654613822437 0.1029847255361322 0  0.9612688796250578 0.9612688796250578 0  0 0.03125 0  0.03125 0 0  0.04144949962501476 0.9585505003749852 0  0.9558898336496962 0.04411016635030385 0  0.9068917513393455 0.6748714165270275 0  0.1368346895292699 0.830580202512584 0  0.1325215314767946 0.2232188145997174 0  0.07053058491102715 0.2523250971165124 0  0.28125 1 0  0.2618257196382527 0.9585732837283344 0  0.08628220552312613 0.8784418410901162 0  0.6885162251696433 0.09694521726220126 0  0.7451861497985837 0.1260293295250874 0  0.313422114933215 0.09491014745286984 0  0.2604190570795071 0.1249189143540631 0  0.9242490330121279 0.3761177923443456 0  0.8294827367589617 0.1534479284350518 0  0 0.28125 0  0.1085704015556412 0.3026527142683792 0  0.6454377779583714 0.9642341400769985 0  0.1735682150935896 0.1501527832362767 0  0.9118639212665761 0.2270478094042325 0  0.9675029085737417 0.7231519194735394 0  0.9540854621793986 0.6818714685662951 0  0.3411855214203015 0.9011195850022233 0  0.2203778463487443 0.08657146517086198 0  0.04103470738435357 0.04103470738435357 0  0.5692124642834736 0.9350661676969988 0  0.1143804055696223 0.9319617439078584 0  0.08871656954519293 0.3663659127109965 0  0.9630811790855398 0.168250321868886 0  0.8941478109554366 0.1077225817667272 0  0.7685953432959879 0.09339992494635127 0  0.9613334331586147 0.8673647296762501 0  0.84375 0 0  0.8276419188889859 0.03874003995670209 0  0.4987074584280061 0.9312004428379874 0  0.4999999999999999 0.07012294039149713 0  0.906353444207591 0.8962759602721756 0  0.8317000502825128 0.2255938539236174 0  0.060982293117454 0.1847248153131282 0  0.84375 1 0  0.8601163332513452 0.9625346208269469 0  0.07696867235812772 0.6190771663714262 0  0.03866375363197156 0.624370156890833 0  0.386395970129115 0.9182613855572013 0  0.59375 1 0  0.03763634871355165 0.2725691404761272 0  1 0.34375 0  0.9619513789393942 0.3638256452123659 0  0.1705891391383945 0.2215719862571997 0  0.2993345649440622 0.9643978827856838 0  0.2548390693531445 0.917543736811073 0  0.4376701674058487 0.06983678836603174 0  0.6249880952696493 0.07804203554412367 0  0.8891633930840495 0.7080603551933189 0  0 0.65625 0  0.8857454763750297 0.2783067670731572 0  1 0.65625 0  0 0.59375 0  0.9147359581367025 0.7498372322849914 0  0.34375 1 0  0.08128436453222096 0.3306040779845135 0  0.8370204413255111 0.08803482611562097 0  0.4399236117509409 0.9264634199869409 0  0.3763243110806382 0.08093997073896844 0  1 0.78125 0  0.3058827875685617 0.8943637152968825 0  0.891027260700638 0.1971556622156984 0  0.1814462944911871 0.9630031969500565 0  0.1812917788273262 0.1067749496803429 0  0.2291605611046911 0.1598957180171764 0  0.630525566101238 0.03837025329843378 0  0.03363261960646192 0.92260900189631 0  0.2960793559902691 0.1260912307633523 0  0.03663553287191564 0.8179172045954961 0  0.02996523389584273 0.8560987956667739 0  0.09880166525369549 0.8450583124835681 0  0.6923212173088138 0.150169004406393 0  0.502
[...]
<CellData  Scalars="detF"> 
<DataArray  type="Float64"  Name="detF"  format="ascii">1.2008473195183096e+00   1.2805398269092290e+00   1.2928973664563479e+00   1.2909530569010821e+00   1.3054750078280046e+00   1.3491483192846592e+00   1.2845998691073568e+00   1.2513700522188524e+00   1.2677408673697521e+00   1.3259743266656172e+00   1.3029025738539204e+00   1.2304815086512626e+00   1.2873426421574390e+00   1.2621834306893378e+00   1.2486160844474210e+00   1.2736626080056770e+00   1.2879252667625194e+00   1.3351306560013694e+00   1.3387984954742342e+00   1.2027659819091365e+00   1.2492800214363022e+00   1.2635991917247011e+00   1.2805680883591986e+00   1.3276408565103130e+00   1.2443122653184850e+00   1.2711127028570217e+00   1.2057725551333580e+00   1.2718599694618111e+00   1.3317956296720037e+00   1.2538072999126253e+00   1.2848147044908154e+00   1.3268990393396123e+00   1.2684861121005619e+00   1.2499751800172563e+00   1.2887518164560956e+00   1.2206649493952477e+00   1.3058496767373415e+00   1.3241638895074572e+00   1.1867189436327239e+00   1.2617317702485453e+00   1.2569367947735923e+00   1.1969399917686587e+00   1.3075975006645724e+00   1.3111102188438861e+00   1.2784215306217805e+00   1.3140523659452339e+00   1.3042976302673643e+00   1.3464444027460607e+00   1.2610447462760990e+00   1.2774168837364630e+00   1.2710632263991242e+00   1.3061469878655259e+00   1.2971000140678923e+00   1.2580934832516282e+00   1.2724662816507979e+00   1.2764604320454380e+00   1.2660213182303830e+00   1.3285879546732753e+00   1.2825917547812327e+00   1.1816273734911888e+00   1.2004476223302782e+00   1.2682398321570016e+00   1.2922971178325737e+00   1.2587510167370111e+00   1.2005686202164705e+00   1.3168375046378620e+00   1.2432681950374014e+00   1.1593486241708681e+00   1.2829476223682701e+00   1.2357659215032533e+00   1.2660567842707307e+00   1.2658022825677873e+00   1.2239060749578206e+00   1.2883226137218353e+00   1.2700520075466508e+00   1.2723230848040803e+00   1.2651297973635707e+00   1.2833979321966271e+00   1.2930852117134255e+00   1.2753242511128438e+00   1.3117689326766304e+00   1.2645393905654978e+00   1.2957638657110326e+00   1.2715660556834085e+00   1.2635856244958068e+00   1.2870586281404923e+00   1.2723254378080182e+00   1.2704285147264656e+00   1.2613803421396723e+00   1.2891154727404843e+00   1.1600074772195326e+00   1.2810261968364893e+00   1.2633137454017860e+00   1.3007741259770143e+00   1.2889824776325174e+00   1.3044791175551251e+00   1.2494225020918337e+00   1.2424353494272680e+00   1.2533894357042672e+00   1.3071909783318785e+00   1.2477116769958447e+00   1.2730662130578176e+00   1.2884398441947662e+00   1.2750346439968843e+00   1.2347591241002700e+00   1.2339648773768075e+00   1.2209990988899546e+00   1.3161497869284362e+00   1.3440059858408346e+00   1.2524432303698989e+00   1.2826642776862169e+00   1.1583557207206803e+00   1.2617038323390877e+00   1.3387105963024253e+00   1.3137933260335606e+00   1.2982320433362835e+00   1.2341136916514643e+00   1.2660616523425745e+00   1.3194719255626106e+00   1.3389356406450350e+00   1.2755831716243142e+00   1.3178980070621598e+00   1.3136559739115921e+00   1.3103887954477769e+00   1.2834724691567492e+00   1.2900342137804715e+00   1.2939395290349798e+00   1.2797715775007794e+00   1.3148205660759142e+00   1.3431786399057042e+00   1.2856468143577697e+00   1.1751111332111344e+00   1.3274773297337246e+00   1.3113216239840706e+00   1.2480834134510734e+00   1.2688674938136364e+00   1.2070835377842339e+00   1.2530201203754385e+00   1.2695725586507918e+00   1.2609594080471398e+00   1.2606139360119202e+00   1.2596762030044779e+00   1.3914427676154943e+00   1.2787329081514234e+00   1.3403425188111124e+00   1.3325536567050893e+00   1.3118984713394350e+00   1.2312485300105933e+00   1.3095074185761737e+00   1.3081805543732121e+00   1.2837239385570529e+00   1.3518333320370257e+00   1.3216781026032687e+00   1.3529314437378557e+00   1.2911986321763027e+00   1.3110529071372765e+00   1.2958731958868510e+00   1.2348763020228555e+00   1.2910938051731657e+00   1.3134992773622065e+00   1.3363703183281013e+00   1.4079806912477266e+00   1.2840323259366415e+00   1.3578722474191594e+00   1.3687513373383919e+00   1.3014162043665034e+00   1.2778207737962057e+00   1.2937669275885513e+00   1.3704453437572957e+00   1.3376205180567382e+00   1.2711401051810698e+00   1.3335351279095202e+00   1.3023162681556599e+00   1.2882401804004915e+00   1.2898679770436812e+00   1.2210531755429626e+00   1.2809380011436411e+00   1.3106310948854933e+00   1.2989105088850079e+00   1.2912514057400906e+00   1.2734890209521927e+00   1.3144365466297030e+00   1.3387397227175715e+00   1.3005230082408683e+00   1.3334331484468134e+00   1.3033889681100841e+00   1.2827994621195902e+00   1.2735802064023209e+00   1.2847926475823142e+00   1.2896610929952381e+00   1.2837413591547560e+00   1.2908146525992259e+00   1.2798553676763200e+00   1.3779570591801744e+00   1.2890978364187584e+00   1.3405077195098865e+00   1.2521063861770212e+00   1.3000152452344664e+00   1.2655558163888010e+00   1.2066744451259379e+00   1.2974770082025777e+00   1.2846684645711282e+00   1.2562512033036028e+00   1.3045484911617429e+00   1.2885461431731973e+00   1.2838072998934582e+00   1.2772798543517212e+00   1.2861200680337779e+00   1.2867657699736688e+00   1.2797614728458697e+00   1.3154365078695633e+00   1.3161416937373680e+00   1.2585910343842188e+00   1.2724788293856961e+00   1.2780866713681656e+00   1.2754264304768623e+00   1.2476147411907661e+00   1.1871599270138653e+00   1.2861843130655779e+00   1.3043948958595344e+00   1.2752005237496671e+00   1.2775433526727482e+00   1.2816067688975328e+00   1.2788778747210199e+00   1.2790154750436729e+00   1.2802014598933142e+00   1.2238053146082022e+00   1.2523957213719541e+00   1.2919767922175982e+00   1.2865106343980679e+00   1.2980881450364796e+00   1.1826097644275753e+00   1.2779267659379026e+00   1.2729588403498044e+00   1.2251247850080436e+00   1.3281384094213404e+00   1.3275746709969127e+00   1.1948126033668989e+00   1.1997225622192726e+00   1.2742391005896800e+00   1.2260872885040182e+00   1.2573720081620794e+00   1.2569245129847169e+00   1.3535911064430051e+00   1.3082202703615242e+00   1.2437208116574425e+00   1.2564964343125566e+00   1.2545858816884530e+00   1.2196506813854766e+00   1.1331154056144472e+00   1.2568050178729537e+00   1.2631238478008260e+00   1.2426384717582271e+00   1.2236825628935180e+00   1.1715342327150959e+00   1.1368581322680875e+00   1.1882667678800152e+00   1.1946430880093741e+00   1.1559649769319273e+00   1.2505141715349408e+00   1.3256161677183962e+00   1.3210074841385515e+00   1.3295438348062096e+00   1.2951878999678694e+00   1.2806963676650316e+00   1.2826296246148581e+00   1.2512054335027698e+00   1.3341317720651042e+00   1.2799233653139028e+00   1.3043651160511585e+00   1.2968190315430697e+00   1.2819859208145041e+00   1.2300446961378377e+00   1.2837494677011738e+00   1.2647488537808667e+00   1.3226893925697101e+00   1.2591740367369355e+00   1.1620612758003908e+00   1.2575757894791206e+00   1.3151197287102103e+00   1.3187974793353954e+00   1.3581813235458249e+00   1.3217581373637675e+00   1.2161491857191249e+00   1.2602870578912067e+00   1.3009233339790058e+00   1.3202880380785622e+00   1.2985932529585400e+00   1.2924444553393781e+00   1.2946939155900161e+00   1.3315810051435328e+00   1.2262915572028967e+00   1.2911844951339573e+00   1.2767121703579993e+00   1.1813197054717097e+00   1.1597889854460337e+00   1.2343771879289400e+00   1.2936263509633172e+00   1.2779675249712334e+00   1.2092843178710022e+00   1.2682870435722360e+00   1.2779945977784584e+00   1.2887993046144068e+00   1.2569300840281397e+00   1.2808167132041137e+00   1.2745563946524709e+00   1.2066810065268507e+00   1.2535174959754374e+00   1.2731533450969030e+00   1.2496002500954067e+00   1.2670395961858338e+00   1.2653009866369542e+00   1.2786569150229183e+00   1.2878474899485470e+00   1.2847448097077938e+00   1.2731827242104252e+00   1.2346026941458419e+00   1.2587645698870940e+00   1.2968346348225950e+00   1.2642268206856768e+00   1.2413551595432064e+00   1.1993018686522312e+00   1.2748333017988076e+00   1.2530666917167741e+00   1.2488419184056336e+00   1.3184334906246895e+00   1.2510770867425145e+00   1.2061047892268060e+00   1.3466617400330989e+00   1.3440107214393824e+00   1.2892905798735246e+00   1.2640905602305863e+00   1.2464364705677973e+00   1.3538154588325506e+00   1.3265441066117993e+00   1.3197817913592025e+00   1.3447899685262563e+00   1.3253523932780527e+00   1.3362939235988303e+00   1.3093886190603226e+00   1.2809769250078245e+00   1.2847186458444859e+00   1.2815218363034231e+00   1.2914108560326112e+00   1.1560563322972637e+00   1.2152317260425898e+00   1.3153682091548251e+00   1.2154890990070772e+00   1.3365525047813076e+00   1.2982877405636086e+00   1.2781001171409185e+00   1.2877653943787273e+00   1.3166417108819195e+00   1.3088270049453965e+00   1.3487775790820415e+00   1.2581994331979294e+00   1.2783107105229812e+00   1.3040830124237750e+00   1.2776802716823519e+00   1.3104615579813381e+00   1.2379813960934425e+00   1.2893711342250205e+00   1.2942855452527589e+00   1.2373440467651879e+00   1.2343706753812178e+00   1.2088516401504961e+00   1.2553515352480755e+00   1.2351846801025430e+00   1.2621576890391679e+00   1.3015740087514480e+00   1.2893441638889356e+00   1.2413299955144566e+00   1.2884122476478355e+00   1.3459649195485117e+00   1.3389681118654682e+00   1.3060175870519219e+00   1.2746616785047769e+00   1.2350093412457541e+00   1.2323427896765575e+00   1.1662664009481118e+00   1.2420980965746982e+00   1.2418542060146476e+00   1.1981151761607518e+00   1.3009091434001629e+00   1.3014844674775183e+00   1.2140234852266485e+00   1.2530904908526319e+00   1.3713500450683318e+00   1.4197764284088406e+00   1.2322657601905327e+00   1.1997812939511365e+00   1.2169017856401063e+00   1.3256377275437361e+00   1.3462811593089905e+00   1.3661953879819309e+00   1.2438659377878969e+00   1.3008556884031357e+00   1.2749583170618801e+00   1.3024993178333730e+00   1.2817285283167532e+00   1.3188317655285009e+00   1.2919601997885624e+00   1.2774706122251334e+00   1.2795024839285358e+00   1.2941400243264538e+00   1.2744248949640491e+00   1.2792470220250631e+00   1.2751870901359295e+00   1.3247072876387274e+00   1.3588131675379189e+00   1.4214529977522878e+00   1.4206040050411737e+00   1.2994421904676803e+00   1.3018661718495785e+00   1.1792633824626668e+00   1.2265090450980327e+00   1.3158398676800991e+00   1.3740552802079213e+00   1.3199819662520766e+00   1.3481392388373985e+00   1.2910117016433600e+00   1.3077042176754974e+00   1.2576285284710653e+00   1.2006104658883048e+00   1.3963774251710559e+00   1.2872413411715744e+00   1.3342835100763824e+00   1.2663611160047787e+00   1.2613733562934026e+00   1.2874053906861840e+00   1.3121472957388793e+00   1.3040008057109387e+00   1.3074488061117413e+00   1.2733038247958477e+00   1.3392964237807847e+00   1.3133709830175397e+00   1.3900701008130198e+00   1.2082307823761098e+00   1.3193306547923769e+00   1.3194854180331506e+00   1.2857884962356450e+00   1.2738400970444645e+00   1.2605983315819016e+00   1.2662529644090490e+00   1.2090714746929097e+00   1.4192171470071866e+00   1.2286939619902182e+00   1.2832531417070800e+00   1.3087878136853732e+00   1.2367138835052802e+00   1.2554795253436866e+00   1.2508669899448257e+00   1.2471814200247271e+00   1.3424764612858680e+00   1.3356178277996409e+00   1.3383301868070727e+00   1.3168582699304361e+00   1.3209699715054664e+00   1.3059364421360373e+00   1.3193671600592181e+00   1.2529557456907829e+00   1.2580730710100876e+00   1.2892218885536355e+00   1.2836185349026672e+00   1.3073805539562389e+00   1.3424116911774659e+00   1.3203347487154813e+00   1.3228744136782722e+00   1.2481361317882249e+00   1.2512424828194879e+00   1.2747951907923494e+00   1.3131459014276774e+00   1.3341885753635783e+00   1.3071453858114679e+00   1.2819390432624123e+00   1.2963017650917443e+00   1.2762500860559487e+00   1.2760514890868131e+00   1.3766112051017236e+00   1.3553140979784164e+00   1.4062580735607102e+00   1.1571975168204569e+00   1.2458227257643861e+00   1.1599381990367217e+00   1.3078847845404358e+00   1.3341521617264223e+00   1.2912646586023004e+00   1.2945170646307573e+00   1.2468985016140404e+00   1.2592100801894428e+00   1.2761153093106183e+00   1.2854297804326293e+00   1.2920844720998188e+00   1.2978763218529659e+00   1.2529158632915087e+00   1.3166293567463101e+00   1.2602802734792578e+00   1.2752867384976627e+00   1.2908869477567742e+00   1.2829442847603789e+00   1.2909773362804167e+00   1.3193977492922073e+00   1.2963031486494643e+00   1.2581519395404175e+00   1.2634372350571763e+00   1.2510814382150910e+00   1.2779799738176094e+00   1.3918742234388735e+00   1.3263103777820104e+00   1.3087468716469728e+00   1.3525669206243627e+00   1.2762187200571615e+00   1.2124075060477619e+00   1.2107626296575691e+00   1.2305169128732290e+00   1.2689096772892841e+00   1.3040395625352970e+00   1.2828312579832599e+00   1.2871580409349315e+00   1.3516863019442142e+00   1.3112326634166902e+00   1.2894370744829358e+00   1.2864282885206506e+00   1.3004216859469111e+00   1.3543606780925916e+00   1.4218347226885708e+00   1.2938160354464201e+00   1.2899640482506489e+00   1.3461513972481500e+00   1.3090696639673918e+00   1.3355559477670504e+00   1.3264038825251963e+00   1.3146634346563457e+00   1.3174298402398079e+00   1.2649290357420835e+00   1.2422193265305468e+00   1.2805478105470414e+00   1.2392170717544833e+00   1.2256595468794993e+00   1.2766365592703008e+00   1.2760140132714097e+00   1.2595531565991571e+00   1.3391773197418146e+00   1.3543663859882995e+00   1.2044646812308575e+00   1.2058435436032180e+00   1.2072147970985543e+00   1.1598498528166790e+00   1.1620445624080764e+00   1.1362906734740708e+00   1.2089206019435990e+00   1.1999020675374581e+00   1.2349837524155904e+00   1.1760025305775066e+00   1.2586742598821834e+00   1.2215367890637046e+00   1.2053235946261001e+00   1.2263502821597057e+00   1.2321211234833980e+00   1.2002142880478976e+00   1.2045814576927516e+00   1.1965392238824870e+00   1.3346860562300535e+00   1.3559823038025249e+00   1.2960119963389507e+00   1.2887262572994538e+00   1.2738590597922295e+00   1.3061291102967170e+00   1.2496994104708119e+00   1.2690033616639087e+00   1.3222119037778486e+00   1.3555505098018596e+00   1.2082384922639928e+00   1.1985886732502111e+00   1.2450940698250030e+00   1.2667030849814074e+00   1.2744004235649415e+00   1.2939529719185172e+00   1.2819757222878589e+00   1.2592666733903040e+00   1.3800425527793132e+00   1.3500360083827954e+00   1.3536249974067252e+00   1.3386443824731051e+00   1.4071199901969660e+00   1.4194237172390396e+00   1.3793875846532393e+00   1.3244145911036711e+00   1.3218493061969419e+00   1.3544089946615092e+00   1.3163379274448066e+00   1.3539275025477964e+00   1.4050123972613451e+00   1.3575709562555975e+00   1.3352267277875212e+00   1.3602411780089541e+00   1.2257516175879726e+00   1.1784962537861972e+00   1.2024024651003722e+00   1.1793822658130144e+00   1.1537923377622092e+00   1.1832530074200325e+00   1.0903824783173353e+00   1.0906932595424967e+00   1.1325115929964598e+00   1.1580119440135088e+00   1.3021373667528586e+00   1.3523235191260405e+00   1.2494629123543779e+00   1.2243828989069232e+00   1.2755599434195097e+00   1.2674821904580689e+00   1.3243903012511034e+00   1.2485041898607898e+00   1.2353479740650606e+00   1.2419063811078277e+00   1.1803325775776461e+00   1.2802651345515230e+00   1.2901334910621067e+00   1.2669733723424068e+00   1.2821006034840887e+00   1.2688819892521259e+00   1.2687379792080682e+00   1.2194225756948485e+00   1.2580262500179089e+00   1.4041428820478465e+00   1.3550487763078454e+00   1.3079879740322022e+00   1.3446842022486210e+00   1.3703802306104069e+00   1.3303316058561185e+00   1.2345805496760265e+00   1.2360551441273830e+00   1.2496333582119803e+00   1.2639335864416574e+00   1.2750203991880116e+00   1.2797538486278037e+00   1.2757389495816878e+00   1.1831089277670648e+00   1.2848260944009560e+00   1.3400790026927787e+00   1.3498755226264310e+00   1.2017060445810916e+00   1.3080396210568526e+00   1.2686833338328187e+00   1.4221787725610668e+00   1.3684493725440665e+00   1.2535063400634554e+00   1.4227046106140797e+00   1.3688210692476350e+00   1.2363627711787259e+00   1.2262614019009901e+00   1.2411211208579844e+00   1.2170550580767403e+00   1.2597311866595524e+00   1.2725503917696845e+00   1.2890868733153762e+00   1.2515830180056500e+00   1.2629816002221903e+00   1.3529979839127479e+00   1.1786188471079744e+00   1.2016199389795652e+00   1.2152960308658500e+00   1.2503722697583910e+00   1.3196051627579248e+00   1.2876751670282955e+00   1.1977267081430836e+00   1.2514291685751300e+00   1.2342223487244472e+00   1.3191720614979860e+00   1.2507682176278052e+00   1.1797731643126244e+00   1.2524169127760056e+00   1.2736256769976355e+00   1.2370913289209118e+00   1.2478286668350997e+00   1.1835727216728005e+00   1.2183423671995328e+00   1.1779205107283377e+00   1.2975567124563663e+00   1.3100599466469447e+00   1.1556167669806257e+00   1.2022049362829335e+00   1.3073256976703671e+00   1.2941667396931600e+00   1.3216389305408107e+00   1.2679157290354461e+00   1.2791752948300008e+00   1.3057683940637397e+00   1.2363436624182866e+00   1.1623838182365074e+00   1.3337078019403330e+00   1.3278212172291757e+00   1.2744682989679326e+00   1.3044113414448242e+00   1.2621567713001680e+00   1.3226128813677052e+00   1.3080121539065046e+00   1.3097458053473263e+00   1.3288439775839724e+00   1.2285758681734202e+00   1.2665599477327660e+00   1.2080886624059222e+00   1.2373318376579803e+00   1.2239906296375958e+00   1.2279117556023862e+00   1.3095021563332165e+00   1.2607185653228066e+00   1.3891311938209649e+00   1.3572460109091120e+00   1.2914486658358810e+00   1.2866653544369391e+00   1.2235176259807532e+00   1.2863803492504990e+00   1.2641942714205778e+00   1.4032250573403953e+00   1.3389262900044798e+00   1.2358707830421680e+00   1.1843442400860602e+00   1.2097020090818258e+00   1.1602868578699035e+00   1.3104540708551760e+00   1.3305185669433919e+00   1.3415574534465760e+00   1.3184859151047694e+00   1.2079200762685984e+00   1.2634837088108375e+00   1.2641065818634738e+00   1.2533782125840931e+00   1.2602430809259089e+00   1.2614497062728860e+00   1.2526418269783162e+00   1.2704737953043139e+00   1.2599725098143189e+00   1.2841098789709289e+00   1.2982222680110369e+00   1.3067323479886810e+00   1.2776216365827471e+00   1.2714039428589163e+00   1.2860406537552302e+00   1.2832845404543012e+00   1.2559238715398555e+00   1.2832830034630305e+00   1.2771068966319949e+00   1.1627245233619519e+00   1.2160413989902761e+00   1.1872680443279013e+00   1.2137723342424684e+00   1.2859644064970117e+00   1.3075353952331048e+00   1.2530695431798125e+00   1.2613756072680768e+00   1.2819272975584288e+00   1.2893137220381474e+00   1.2800515342034402e+00   1.2977935195850447e+00   1.3231867639829815e+00   1.2842934553264627e+00   1.2864362365620481e+00   1.2949366692540916e+00   1.3206777766387410e+00   1.3545487468950612e+00   1.2952210024801531e+00   1.2698258119188890e+00   1.2697298476332886e+00   1.2849622976704107e+00   1.3264762713813407e+00   1.3048336517171339e+00   1.1556524908512844e+00   1.3688613712048374e+00   1.3698829565623458e+00   1.2886295746330216e+00   1.1966079420042026e+00   1.2906504620843680e+00   1.2763987731815971e+00   1.2516364693467978e+00   1.2047071218333869e+00   1.2372925661991205e+00   1.1793588154717167e+00   1.2922181657430887e+00   1.2794347810931963e+00   1.3283373384904211e+00   1.3256589311193068e+00   1.1794933309472897e+00   1.2108437396606428e+00   1.2889943777621757e+00   1.2557809530978887e+00   1.2804060722015216e+00   1.3348385434291550e+00   1.3351914797528492e+00   1.2913179034245468e+00   1.2756272431439348e+00   1.3139723470658813e+00   1.3358955853283436e+00   1.2562951054573206e+00   1.2874304790195739e+00   1.16277204691495