<?xml version="1.0"?>
<VTKFile type="UnstructuredGrid"  version="0.1"  >
<UnstructuredGrid>
<Piece  NumberOfPoints="1109" NumberOfCells="1972">
<Points>
<DataArray  type="Float64"  NumberOfComponents="3"  format="ascii">0 1 0  0 0 0  1 0 0  1 1 0  0.8968458805257912 0.5501332934257217 0  0.9 0.5 0  0.8968458805257911 0.4498667065742781 0  0.8874332644514524 0.4005240451340579 0  0.8719105943553006 0.3527501789261288 0  0.8505226720175453 0.3072985303593135 0  0.823606797749979 0.2648858990830106 0  0.7915874509685645 0.2261811576285244 0  0.7549695958994758 0.1917947028896841 0  0.7143307179915988 0.162268829799194 0  0.6703117166260287 0.138069179013592 0  0.6236067977499788 0.1195773934819385 0  0.5749525258342897 0.1070850997085245 0  0.5251162078117251 0.1007893086286913 0  0.4748837921882747 0.1007893086286913 0  0.4250474741657101 0.1070850997085245 0  0.376393202250021 0.1195773934819386 0  0.3296882833739712 0.1380691790135921 0  0.2856692820084015 0.1622688297991939 0  0.2450304041005242 0.1917947028896843 0  0.2084125490314353 0.2261811576285246 0  0.1763932022500209 0.2648858990830109 0  0.1494773279824546 0.3072985303593139 0  0.1280894056446994 0.3527501789261288 0  0.1125667355485475 0.4005240451340581 0  0.1031541194742088 0.4498667065742783 0  0.09999999999999998 0.5 0  0.1031541194742089 0.5501332934257218 0  0.1125667355485476 0.5994759548659421 0  0.1280894056446995 0.6472498210738713 0  0.1494773279824546 0.6927014696406861 0  0.176393202250021 0.7351141009169893 0  0.2084125490314355 0.7738188423714756 0  0.2450304041005241 0.8082052971103157 0  0.2856692820084012 0.837731170200806 0  0.3296882833739709 0.8619308209864078 0  0.3763932022500212 0.8804226065180615 0  0.4250474741657101 0.8929149002914756 0  0.4748837921882746 0.8992106913713087 0  0.5251162078117254 0.8992106913713087 0  0.5749525258342899 0.8929149002914755 0  0.623606797749979 0.8804226065180614 0  0.6703117166260291 0.8619308209864078 0  0.7143307179915986 0.8377311702008061 0  0.754969595899476 0.8082052971103157 0  0.7915874509685646 0.7738188423714755 0  0.823606797749979 0.7351141009169893 0  0.8505226720175454 0.6927014696406861 0  0.8719105943553006 0.6472498210738712 0  0.8874332644514524 0.599475954865942 0  0.5 0 0  0.5 1 0  0 0.5 0  1 0.5 0  0.25 0 0  0.75 0 0  0.75 1 0  0.25 1 0  0 0.75 0  0 0.25 0  1 0.25 0  1 0.75 0  0.375 0 0  0.625 0 0  0.625 1 0  0.375 1 0  0 0.625 0  0 0.375 0  1 0.375 0  1 0.625 0  0.125 0 0  0.875 0 0  0 0.875 0  0.125 1 0  0.875 1 0  0 0.125 0  1 0.125 0  1 0.875 0  0.1443946775413214 0.1213187937376868 0  0.8556053224586788 0.8786812062623132 0  0.8556053224586785 0.1213187937376867 0  0.1275360334547992 0.8724639665452008 0  0.9261623581710797 0.1875 0  0.09234641934319709 0.2082689144241477 0  0.9076535806568029 0.7917310855758523 0  0.08970099689351971 0.7603836651344988 0  0.2182130526099624 0.9079579669686324 0  0.07086411995581518 0.07086411995581518 0  0.0625 1 0  0 0.9375 0  1 0.0625 0  0.9375 0 0  0.9291358800441849 0.9291358800441849 0  0.7304772975931939 0.08076335202639119 0  0.2695227024068061 0.08076335202639115 0  0.7697819974699807 0.9105968468121929 0  1 0.6875 0  1 0.3125 0  0.06784168511078095 0.2966417331842567 0  0 0.6875 0  0.1875 0 0  0.8125 0 0  0.9212459744619301 0.2681742056774029 0  0.3125 1 0  0.6875 1 0  0.922097136530977 0.07790286346902295 0  0.9261304603587264 0.7150772115644075 0  0 0.8125 0  0.07432186328509671 0.9256781367149033 0  0.06317182982585627 0.84375 0  0.8548473925302104 0.1928285354262928 0  0.2914274450692525 0.9272721924131209 0  0.6710199663399635 0.9319471281137308 0  0.9226595291420543 0.8597667107019437 0  0.0773404708579461 0.1402332892980563 0  0.8125 1 0  0.06054886616517211 0.65625 0  0.9362657027224049 0.3336129027547622 0  0.1841195715992005 0.8363784907223111 0  0.6625377124131507 0.06023416665880475 0  0.3125 0 0  0.34375 0.06016090820395464 0  0.2153846372786545 0.1270381302276244 0  0.8024953780019808 0.07187189600048093 0  0.1546395545758083 0.9367961467266345 0  0.5625 1 0  0.4375 0 0  0.4375 1 0  0.5625 0 0  0.1844766880788185 0.06724298999790632 0  0.9369725282473387 0.6419809811402504 0  0.791523351719164 0.1369023590147849 0  0.8285961364903059 0.9374018659319692 0  1 0.4375 0  0 0.4375 0  1 0.5625 0  0 0.5625 0  0 0.3125 0  1 0.8125 0  0.0625 0 0  0 0.0625 0  0 0.1875 0  1 0.1875 0  1 0.9375 0  0.9375 1 0  0.6875 0 0  0.1875 1 0  0.8126465958421825 0.8329348088176629 0  0.1550798535647612 0.1867680086445373 0  0.8631981559835366 0.06032295929500282 0  0.1449089435554358 0.7884432695884597 0  0.3538206140027237 0.9399564250283491 0  0.944997661525766 0.4151121561005554 0  0.05500233847423393 0.5848878438994446 0  0.0520912947951912 0.40625 0  0.59375 0.05063263303723638 0  0.6113142584645842 0.9411585052804305 0  0.402402637527157 0.05243074290023167 0  0.05237021982595785 0.7146869946988353 0  0.9514280734197595 0.53125 0  0.04857192658024048 0.46875 0  0.1138995451272664 0.2618291859344329 0  0.1276043399716366 0.06698080255494471 0  0.9496852823490703 0.5873315358652272 0  0.7164226875694513 0.8936714072472519 0  0.728445758907293 0.9483406189827143 0  0.05037626111865807 0.3500677784994627 0  0.9425695009311538 0.1320174568820216 0  0.4108317852857326 0.9488345682840208 0  0.5398628985995173 0.04893133705064829 0  0.46875 0.04573672429098317 0  0.4652931800096448 0.9529811055869081 0  0.53125 0.9542632757090168 0  0.8785971272885281 0.7441734326495726 0  0.8518416617605847 0.7931754903661554 0  0.04183404050302509 0.78125 0  0.7612395846848441 0.8595654412716175 0  0.2310588911243982 0.8579303197600836 0  0.04148050284378633 0.21875 0  0.9494864361787021 0.7612608042848362 0  0.9500000000000001 0.4721339993173143 0  0.04999999999999998 0.5278660006826856 0  0.8781553628189985 0.9246252444972441 0  0.8731991046476956 0.2435858407989878 0  0.09811738497342513 0.6912987895906199 0  0.78125 0.9600244726998853 0  0.09951704281279977 0.8094116423849811 0  0.1723930843372325 0.8914409560171174 0  0.21875 0.9592823984315264 0  0.8808053857873319 0.8333253975559158 0  0.8963977713581862 0.1485308906960134 0  0.9538351164349618 0.2296733193971382 0  0.9502525126806526 0.8180081280125184 0  0.2312490385075739 0.04727387874777968 0  0.2715914187620846 0.8835921407480765 0  0.8075381809024645 0.880775593205643 0  0.71875 0.03518728418751645 0  0.28125 0.03518728418751642 0  0.7646042202168328 0.04444036111707996 0  0.9023329991729737 0.03666350737326187 0  0.03401531498238862 0.15625 0  0.1188530488980251 0.1590855287670435 0  0.9585274478449393 0.2940602659505009 0  0.122777080947294 0.7293581095092172 0  0.9670375667902916 0.09375 0  0.2005134857209875 0.1810792546569654 0  0.04567406045797464 0.8878541658538743 0  0.09375 0.966869578205468 0  0.1562008719445321 0.03232788333739163 0  0.8953932105853648 0.3139420780646932 0  0.7990572522972532 0.1815363722387022 0  0.0968875242781685 0.03463409819727443 0  0.03223722036876893 0.09375 0  0.9004223587754672 0.9633108159792649 0  0.9677627796312311 0.90625 0  0.1015654613822437 0.1029847255361322 0  0.9612688796250578 0.9612688796250578 0  0 0.03125 0  0.03125 0 0  0.9558898336496962 0.04411016635030385 0  0.04144949962501476 0.9585505003749852 0  0.9068917513393455 0.6748714165270275 0  0.1368346895292699 0.830580202512584 0  0.1325215314767946 0.2232188145997174 0  0.07053058491102715 0.2523250971165124 0  0.28125 1 0  0.2618257196382527 0.9585732837283344 0  0.08628220552312613 0.8784418410901162 0  0.6885162251696433 0.09694521726220126 0  0.7451861497985837 0.1260293295250874 0  0.313422114933215 0.09491014745286984 0  0.2604190570795071 0.1249189143540631 0  0.9242490330121279 0.3761177923443456 0  0.8294827367589617 0.1534479284350518 0  0 0.28125 0  0.1085704015556412 0.3026527142683792 0  0.6454377779583714 0.9642341400769985 0  0.1735682150935896 0.1501527832362767 0  0.9118639212665761 0.2270478094042325 0  0.9675029085737417 0.7231519194735394 0  0.9540854621793986 0.6818714685662951 0  0.3411855214203015 0.9011195850022233 0  0.2203778463487443 0.08657146517086198 0  0.04103470738435357 0.04103470738435357 0  0.5692124642834736 0.9350661676969988 0  0.1143804055696223 0.9319617439078584 0  0.08871656954519293 0.3663659127109965 0  0.9630811790855398 0.168250321868886 0  0.8941478109554366 0.1077225817667272 0  0.7685953432959879 0.09339992494635127 0  0.9613334331586147 0.8673647296762501 0  0.84375 0 0  0.8276419188889859 0.03874003995670209 0  0.4987074584280061 0.9312004428379874 0  0.4999999999999999 0.07012294039149713 0  0.906353444207591 0.8962759602721756 0  0.8317000502825128 0.2255938539236174 0  0.060982293117454 0.1847248153131282 0  0.84375 1 0  0.8601163332513452 0.9625346208269469 0  0.07696867235812772 0.6190771663714262 0  0.03866375363197156 0.624370156890833 0  0.386395970129115 0.9182613855572013 0  0.59375 1 0  0.03763634871355165 0.2725691404761272 0  1 0.34375 0  0.9619513789393942 0.3638256452123659 0  0.1705891391383945 0.2215719862571997 0  0.2993345649440622 0.9643978827856838 0  0.2548390693531445 0.917543736811073 0  0.4376701674058487 0.06983678836603174 0  0.6249880952696493 0.07804203554412367 0  0.8891633930840495 0.7080603551933189 0  0 0.65625 0  0.8857454763750297 0.2783067670731572 0  1 0.65625 0  0 0.59375 0  0.9147359581367025 0.7498372322849914 0  0.34375 1 0  0.08128436453222096 0.3306040779845135 0  0.8370204413255111 0.08803482611562097 0  0.4399236117509409 0.9264634199869409 0  0.3763243110806382 0.08093997073896844 0  1 0.78125 0  0.3058827875685617 0.8943637152968825 0  0.891027260700638 0.1971556622156984 0  0.1814462944911871 0.9630031969500565 0  0.1812917788273262 0.1067749496803429 0  0.2291605611046911 0.1598957180171764 0  0.630525566101238 0.03837025329843378 0  0.03363261960646192 0.92260900189631 0  0.2960793559902691 0.1260912307633523 0  0.03663553287191564 0.8179172045954961 0  0.02996523389584273 0.8560987956667739 0  0.09880166525369549 0.8450583124835681 0  0.6923212173088138 0.150169004406393 0  0.502
[...]
<CellData  Scalars="detF"> 
<DataArray  type="Float64"  Name="detF"  format="ascii">1.3242570483492535e+00   1.3311616847872885e+00   1.3307951866815177e+00   1.3439688889307218e+00   1.3952974802374412e+00   1.3196717075221853e+00   1.3115066254802770e+00   1.2201574918163876e+00   1.2813454632904557e+00   1.3721406302061048e+00   1.3397771918385966e+00   1.2513736887327982e+00   1.3224438489549644e+00   1.2993693256546468e+00   1.2737913517101409e+00   1.3055686453950113e+00   1.3233061087866897e+00   1.3892584365065370e+00   1.3832359481893639e+00   1.2225972689359696e+00   1.2772541204889025e+00   1.3004349175933365e+00   1.3172222274565533e+00   1.3774639162160731e+00   1.2694431074790640e+00   1.2997636186458374e+00   1.3029445546113596e+00   1.2266969691506602e+00   1.3833281469742540e+00   1.2917082995218272e+00   1.3225422479175759e+00   1.3263523062684448e+00   1.3711123208042511e+00   1.3006417707432598e+00   1.2765683595337436e+00   1.2581113340592083e+00   1.3541821545356643e+00   1.3729325306707709e+00   1.3043634944704534e+00   1.2942884557996188e+00   1.2300286925470798e+00   1.3575269409159310e+00   1.2160862875655116e+00   1.3591582939830789e+00   1.3159138609622671e+00   1.3600297020027610e+00   1.3485962686177293e+00   1.3963392031591382e+00   1.2986908263184473e+00   1.3168969611394432e+00   1.3031447623330650e+00   1.3461465425699675e+00   1.3400150829031765e+00   1.2950476894050305e+00   1.3093166367444027e+00   1.3078806881595353e+00   1.2964257560040677e+00   1.3793214055969374e+00   1.3204603815116167e+00   1.3123794786168166e+00   1.3324541096128939e+00   1.3027143464388544e+00   1.2332093770586290e+00   1.2093609843096200e+00   1.2348403866510289e+00   1.3642760764769082e+00   1.2651410094134801e+00   1.1651644065566718e+00   1.3209157117087711e+00   1.2496376518471082e+00   1.2966780536969840e+00   1.2952443727278902e+00   1.2437850752385342e+00   1.3240248278235900e+00   1.2976764910313670e+00   1.3023183121860933e+00   1.2904877490759528e+00   1.3168013553542386e+00   1.3303945852650152e+00   1.3183693971975634e+00   1.3590999637549774e+00   1.2945170479402068e+00   1.3322815979961777e+00   1.3025295916318862e+00   1.2932921341554182e+00   1.3355516375960024e+00   1.3173185416992197e+00   1.3005264114835784e+00   1.2994759967072131e+00   1.3298319376786525e+00   1.1867684256873432e+00   1.3287049840801195e+00   1.3027412989782265e+00   1.3426555879649416e+00   1.3353597624093374e+00   1.3421087549991435e+00   1.2655319532508975e+00   1.2664992842742770e+00   1.2798761493352531e+00   1.3550429775228336e+00   1.2837926038517726e+00   1.3096606416305439e+00   1.3339015934039804e+00   1.3187800773733109e+00   1.2710381224638827e+00   1.2601816840207385e+00   1.2411375901868562e+00   1.3651268346079892e+00   1.3957529082828011e+00   1.2793610102757178e+00   1.3170654547500147e+00   1.1681382033964831e+00   1.2885043625048580e+00   1.3914439372747629e+00   1.3647833370887441e+00   1.3425390505372239e+00   1.2702434633663353e+00   1.3111705827459248e+00   1.3617624818666452e+00   1.3845166899222490e+00   1.3099451164044016e+00   1.3598595599294379e+00   1.3537004288496410e+00   1.3566363182617789e+00   1.3229960295944039e+00   1.3259763589811768e+00   1.3351530628270341e+00   1.3177934788366714e+00   1.3662181855555333e+00   1.3893932680880852e+00   1.3207187070107953e+00   1.1902534713839446e+00   1.3705147688303647e+00   1.3531036952012498e+00   1.2849130962700690e+00   1.2991968017416211e+00   1.2418558107897109e+00   1.2901962092980261e+00   1.3067833839076732e+00   1.3004157220922872e+00   1.3048863996450970e+00   1.2859378389304241e+00   1.4480873433770005e+00   1.3156668976368702e+00   1.3926881359532928e+00   1.3854242368932355e+00   1.3603100772725649e+00   1.2666624974568814e+00   1.3617463450771825e+00   1.3482202936297429e+00   1.3156643260232308e+00   1.4009095999022101e+00   1.3651586420399822e+00   1.4000693719140973e+00   1.3289692639246791e+00   1.3500253669278424e+00   1.3316180939621625e+00   1.2597630091538097e+00   1.3266163632598797e+00   1.3552059939033185e+00   1.3819893066991173e+00   1.4657239660558707e+00   1.3186407561117213e+00   1.4079566305815263e+00   1.4202191034115770e+00   1.3402272647789830e+00   1.3067270968618041e+00   1.3431239381879592e+00   1.4225572888282774e+00   1.3831183830061005e+00   1.3003886241635181e+00   1.3808073691598755e+00   1.3446178156476902e+00   1.3252673521435496e+00   1.3261469195252176e+00   1.2541150956759384e+00   1.3265944519380171e+00   1.3506898829240679e+00   1.3361748700814666e+00   1.3284924272367631e+00   1.3065875128217239e+00   1.3565730939580973e+00   1.3860444755811738e+00   1.3437200274404042e+00   1.3875843943764530e+00   1.3500155258170945e+00   1.3221280470782579e+00   1.3117447721906514e+00   1.3163485133883688e+00   1.3251181998282957e+00   1.3156390730778591e+00   1.3319104395394592e+00   1.3150184195050796e+00   1.4294422773162641e+00   1.3256633601444077e+00   1.3858337736852573e+00   1.2804329292251369e+00   1.3505086404761928e+00   1.3100348401386406e+00   1.2190951142870563e+00   1.3392104456514162e+00   1.3197401947877432e+00   1.2931330683039011e+00   1.3461113776566918e+00   1.3255411679054443e+00   1.3205526851846565e+00   1.3148927989825974e+00   1.3254625308463339e+00   1.3333196032094441e+00   1.3235871937748003e+00   1.3630322782597897e+00   1.3687572862964155e+00   1.2958367382732197e+00   1.3116717222202354e+00   1.3171336450594877e+00   1.3145875254312689e+00   1.2705132737262235e+00   1.1942640941717142e+00   1.3203758977902922e+00   1.3507102464640757e+00   1.3086296495314917e+00   1.3106745506207129e+00   1.3192378004132310e+00   1.3162432453343191e+00   1.3156116276211387e+00   1.3243772930622884e+00   1.2573879666823684e+00   1.2889368860256303e+00   1.3370461190062428e+00   1.3348460459548106e+00   1.3372689934106523e+00   1.1864302338858588e+00   1.3093001120445482e+00   1.3190988517150959e+00   1.2628294769108226e+00   1.3784547498781690e+00   1.3748166482766904e+00   1.2280473329117698e+00   1.2314939749937261e+00   1.3179522532426828e+00   1.2590961838114940e+00   1.2805608191828897e+00   1.2812718578658546e+00   1.4093845894921144e+00   1.3517768733601356e+00   1.2833160439553271e+00   1.2998481404740907e+00   1.2957703276161732e+00   1.2532735807365705e+00   1.1535412647281251e+00   1.2997249717679518e+00   1.3074795661680625e+00   1.2833417419793951e+00   1.2597339217996681e+00   1.1974010767685370e+00   1.1579210476906661e+00   1.2203656759637025e+00   1.2272636395689873e+00   1.1817045724149213e+00   1.2716696860522843e+00   1.3757917443771419e+00   1.3735986530638356e+00   1.3805387779895928e+00   1.3376167025015644e+00   1.3115358551696892e+00   1.3153002293535416e+00   1.2763187435220302e+00   1.3845654215635008e+00   1.3155229373182116e+00   1.3520045071975306e+00   1.3466799189120160e+00   1.3110835739226998e+00   1.2468989073851859e+00   1.3165766123970648e+00   1.2909038003473348e+00   1.3697188195067458e+00   1.2820372116366887e+00   1.1683958230328306e+00   1.2858801819208781e+00   1.3659342482170540e+00   1.3708248227722348e+00   1.4115528097866081e+00   1.3683469807077500e+00   1.2307715957343024e+00   1.2887339004116756e+00   1.3485585429942910e+00   1.3676644943770284e+00   1.3379557402365834e+00   1.3320928521366588e+00   1.3320538701834763e+00   1.3786543612600473e+00   1.2408094215703800e+00   1.3312877487226811e+00   1.3159825098836979e+00   1.2118387240443989e+00   1.1865069073746484e+00   1.2596000742151046e+00   1.3414786651610635e+00   1.3240927646576877e+00   1.2232554036169154e+00   1.3067864287563904e+00   1.3169814256799766e+00   1.3367849835886971e+00   1.3008481726914058e+00   1.3153328525595271e+00   1.3097803027029944e+00   1.2384191270061879e+00   1.2946433562403676e+00   1.3124431685192801e+00   1.2853653619599115e+00   1.3074439811028946e+00   1.3030429474189118e+00   1.3135985096067175e+00   1.3224929756269226e+00   1.3185615257574592e+00   1.3185489264703010e+00   1.2735747435942355e+00   1.2807915560347807e+00   1.3406779268456399e+00   1.3014526954490162e+00   1.2763615292127162e+00   1.2289632153634473e+00   1.3154218912310474e+00   1.2896368124063098e+00   1.2737413276779357e+00   1.3621528599485371e+00   1.2773275622498730e+00   1.2241316186612730e+00   1.3942080812001230e+00   1.3915134814463404e+00   1.3284433157022910e+00   1.2942984821693557e+00   1.2715538073803618e+00   1.4066604022963707e+00   1.3713646491746461e+00   1.3636050316205388e+00   1.3978645078384291e+00   1.3745126206465943e+00   1.3845496329382916e+00   1.3513129879314512e+00   1.3166002007363353e+00   1.3194499927571728e+00   1.3148301162917682e+00   1.3288960212619672e+00   1.1655859355894385e+00   1.2326159951435176e+00   1.3606905798800819e+00   1.2255665909550211e+00   1.3850647912808598e+00   1.3397773864387328e+00   1.3046105520855840e+00   1.3234356491663342e+00   1.3590097494446454e+00   1.3490141719247157e+00   1.3965681007161734e+00   1.2841403914190312e+00   1.3108441818190808e+00   1.3446148501092630e+00   1.3105875612401094e+00   1.3531166515943769e+00   1.2580984970353279e+00   1.3292668293699870e+00   1.3393381322930913e+00   1.2620082413327092e+00   1.2609777797759527e+00   1.2250396398421728e+00   1.2812125984817004e+00   1.2545978995802591e+00   1.2860362362950677e+00   1.3514208288413387e+00   1.3297269324805892e+00   1.2767295350638326e+00   1.3333721416107718e+00   1.4023625538942490e+00   1.3928042942835783e+00   1.3449581907347183e+00   1.3066272888660104e+00   1.2742390119261657e+00   1.2457748216586781e+00   1.1707852919403334e+00   1.2785650439837712e+00   1.2773955974228188e+00   1.2276274886062579e+00   1.3503134370313319e+00   1.3500038308973454e+00   1.2244050591939180e+00   1.2715280883372961e+00   1.4231133048292077e+00   1.4782462178406068e+00   1.2547576285770645e+00   1.2095972294995383e+00   1.2339753237039568e+00   1.3699445935058550e+00   1.3956724926857613e+00   1.4174138669662970e+00   1.2789862346606682e+00   1.3492770916332184e+00   1.3161915780677862e+00   1.3477718282423881e+00   1.3212096601917378e+00   1.3681468012494862e+00   1.3373781717390552e+00   1.3239371425827102e+00   1.3248226204165681e+00   1.3332991275277131e+00   1.3076033351097727e+00   1.3117685014298752e+00   1.3096320473710195e+00   1.3672267653632577e+00   1.4067469867109761e+00   1.4800292940137978e+00   1.4791113849888764e+00   1.3393468808226501e+00   1.3422305718522340e+00   1.1833623672810394e+00   1.2394518477745646e+00   1.3581594807074315e+00   1.4291391312780397e+00   1.3687862874293388e+00   1.4030689628902229e+00   1.3258534717779065e+00   1.3481262371353269e+00   1.2845814596408953e+00   1.2174100636992613e+00   1.4533218396413985e+00   1.3358201223726531e+00   1.3890951009153536e+00   1.2984410912566700e+00   1.2922584624584865e+00   1.3223155878493225e+00   1.3595216441739375e+00   1.3450186744950214e+00   1.3479816831712130e+00   1.3057828569862597e+00   1.3874322573970574e+00   1.3556974308996330e+00   1.4465806945723325e+00   1.2232500563266895e+00   1.3708083368601445e+00   1.3663633054348887e+00   1.3200337887768976e+00   1.3079468453866041e+00   1.2975766273370475e+00   1.3048163876498300e+00   1.2270721061450940e+00   1.4776314209399926e+00   1.2508098672822343e+00   1.3180613961231338e+00   1.3516414657894753e+00   1.2547808932003470e+00   1.2804268538323065e+00   1.2876078608706218e+00   1.2843438422636875e+00   1.3932144782712153e+00   1.3867970636011546e+00   1.3882625173121281e+00   1.3679979550228731e+00   1.3735958087462090e+00   1.3535974646624342e+00   1.3707837542256187e+00   1.2904753380678695e+00   1.2949895063071168e+00   1.3363599117728961e+00   1.3298835654889121e+00   1.3544990263597620e+00   1.3948058798330853e+00   1.3656139506559146e+00   1.3681390490377099e+00   1.2735620445539542e+00   1.2736141666448080e+00   1.3058222976202181e+00   1.3573480404506864e+00   1.3819726270691290e+00   1.3478244782394957e+00   1.3189891663363809e+00   1.3405033263300714e+00   1.3164328501202354e+00   1.3138224372991978e+00   1.4319482729342614e+00   1.4054064400593942e+00   1.4639654254690830e+00   1.1679130373268602e+00   1.2684669411834850e+00   1.1646610447164427e+00   1.3495910400339381e+00   1.3820224515632669e+00   1.3339688467808057e+00   1.3364958204361173e+00   1.2829990905322650e+00   1.2968306403462140e+00   1.3231355620792591e+00   1.3291640246212169e+00   1.3294447671984153e+00   1.3352391527651373e+00   1.2824991123882319e+00   1.3574695441575282e+00   1.2832610447837156e+00   1.3106740998229405e+00   1.3350567596237770e+00   1.3200019666212870e+00   1.3278563452055641e+00   1.3592775198676932e+00   1.3339701184865456e+00   1.2809006540165275e+00   1.2910789637335731e+00   1.2770392379198654e+00   1.3110188532746971e+00   1.4485456735956068e+00   1.3709871457804710e+00   1.3499992849223958e+00   1.4004123370470314e+00   1.3020043894419906e+00   1.2220636508117682e+00   1.2432143321554296e+00   1.2641411837351495e+00   1.3089312593030380e+00   1.3515087997585278e+00   1.3230589389969680e+00   1.3250880209336116e+00   1.4062893295132830e+00   1.3584565142868141e+00   1.3305904703305098e+00   1.3224558740503731e+00   1.3422608724975627e+00   1.4018475876532484e+00   1.4804390515978569e+00   1.3355957996306560e+00   1.3275051494358145e+00   1.3961967433093636e+00   1.3528956349083325e+00   1.3823442227352394e+00   1.3726483072877658e+00   1.3660001147738896e+00   1.3699270968476507e+00   1.2910410698041428e+00   1.2638194816982469e+00   1.3204399261730277e+00   1.2755410019559581e+00   1.2592821908507810e+00   1.3159748745232940e+00   1.3148958490031435e+00   1.2973093485423637e+00   1.3902742880914318e+00   1.4073500706258641e+00   1.2342363269928076e+00   1.2381440293452157e+00   1.2418518602855926e+00   1.1859913434021578e+00   1.1893051308114577e+00   1.1571952769137932e+00   1.2422932923340777e+00   1.2295911200227261e+00   1.2709156462142903e+00   1.2029203426652002e+00   1.2965287716458738e+00   1.2546979193587189e+00   1.2388187867235321e+00   1.2601141817867185e+00   1.2677015539273160e+00   1.2330118905847298e+00   1.2380292804596400e+00   1.2257174130965731e+00   1.3852357419126446e+00   1.4091478780709927e+00   1.3360098846578639e+00   1.3299022993933631e+00   1.3121173531493857e+00   1.3499946353695536e+00   1.2872528026386965e+00   1.3096365320414578e+00   1.3641429680256631e+00   1.4030471401901539e+00   1.2386867113914477e+00   1.2281112532608862e+00   1.2818882794488504e+00   1.3040547712404538e+00   1.3122386044067547e+00   1.3347576219133481e+00   1.3199604555582360e+00   1.2969614602000683e+00   1.4315634025785540e+00   1.3980477082014529e+00   1.4009258888687810e+00   1.3839252870772567e+00   1.4648587810475076e+00   1.4778789382455795e+00   1.4309110732566317e+00   1.3665264238779644e+00   1.3637094441227831e+00   1.4014346812616865e+00   1.3577361758637183e+00   1.4016286338437260e+00   1.4625400624742373e+00   1.4068808858458770e+00   1.3799887107031221e+00   1.4105682172963308e+00   1.2635764249860246e+00   1.2084934729797230e+00   1.2333223122923540e+00   1.2068344693604740e+00   1.1789316662225793e+00   1.2139615227722620e+00   1.1049693341351048e+00   1.1053751158030685e+00   1.1527648824689902e+00   1.1839196849084568e+00   1.3479485180734532e+00   1.4050483805818068e+00   1.2855039514580695e+00   1.2573335496042444e+00   1.3145146824429523e+00   1.3079336593431867e+00   1.3734850934300538e+00   1.2884049312663262e+00   1.2718679227184970e+00   1.2681434461211043e+00   1.1956255868822885e+00   1.3180747448894530e+00   1.3293419573844611e+00   1.3121044738898577e+00   1.3273898393711836e+00   1.3094641821861555e+00   1.3073762179613631e+00   1.2548170404437224e+00   1.3017698415517400e+00   1.4616882069846127e+00   1.4042718122306077e+00   1.3474556893916030e+00   1.3923652740153707e+00   1.4224673526477023e+00   1.3758097581688515e+00   1.2599347319409508e+00   1.2619862856126336e+00   1.2914197518573709e+00   1.3084744650086799e+00   1.3212750787403169e+00   1.3269151196458944e+00   1.3091304638110313e+00   1.2017863697585747e+00   1.3206459226002207e+00   1.3876266891676627e+00   1.3966574930760576e+00   1.2217604447404966e+00   1.3484668317209860e+00   1.2989015935904096e+00   1.4807854251914343e+00   1.4185412891247000e+00   1.2830895130666646e+00   1.4813237167713462e+00   1.4191564184182206e+00   1.2628348983854654e+00   1.2502812411951505e+00   1.2608223821661295e+00   1.2279551673752551e+00   1.2827438421429846e+00   1.3106445621213423e+00   1.3292077920891199e+00   1.2759970442064732e+00   1.2920176834110264e+00   1.4021751253329116e+00   1.1933029983535188e+00   1.2234187754861936e+00   1.2383679064242223e+00   1.2772115329542657e+00   1.3597407073179153e+00   1.3245469619518333e+00   1.2190480980980158e+00   1.2814398137593204e+00   1.2602419915257650e+00   1.3588337083858411e+00   1.2774825700399226e+00   1.1953928627995654e+00   1.2916797210482405e+00   1.3159834865021898e+00   1.2635935219304335e+00   1.2750069385544942e+00   1.1992937953648692e+00   1.2296577779184350e+00   1.1809862141046448e+00   1.3367327141463075e+00   1.3515880194753298e+00   1.1617130602084489e+00   1.2169973796498963e+00   1.3570991797146943e+00   1.3417578602420712e+00   1.3680221040826210e+00   1.2974827012397985e+00   1.3051439481737619e+00   1.3417990588149433e+00   1.2569498945717514e+00   1.1739631913007555e+00   1.3809223202559071e+00   1.3723079290179212e+00   1.3053109915143815e+00   1.3458787645873864e+00   1.2850117039337943e+00   1.3682358863877848e+00   1.3509938288134173e+00   1.3560801166588305e+00   1.3782749240058061e+00   1.2620445732061285e+00   1.3040047253100133e+00   1.2408209434561002e+00   1.2732185173276667e+00   1.2566057357554046e+00   1.2623096159955671e+00   1.3483297350235695e+00   1.2915049015524167e+00   1.4429674160283938e+00   1.4061376801956322e+00   1.3296604915057291e+00   1.3201702725784423e+00   1.2349420156253423e+00   1.3208695325861659e+00   1.2934319632203193e+00   1.4606492774270532e+00   1.3844210164588731e+00   1.2613613951301714e+00   1.2001187109842573e+00   1.2287106904572827e+00   1.1701257694543310e+00   1.3499567790686560e+00   1.3743856504982479e+00   1.3971894558918883e+00   1.3687419902941358e+00   1.2418534240913308e+00   1.3068560895069006e+00   1.2959792782152424e+00   1.2819439566296849e+00   1.2897316992449974e+00   1.2921288790438663e+00   1.2899516400395132e+00   1.3087799855178037e+00   1.2846604824942232e+00   1.3111221599615690e+00   1.3429115842529125e+00   1.3522483740096549e+00   1.3096401823171198e+00   1.3005243964610065e+00   1.3265805002530870e+00   1.3193397072885069e+00   1.2784250619416417e+00   1.3210215555211933e+00   1.3137758137646196e+00   1.1664893884875267e+00   1.2258722831364752e+00   1.2168645273670651e+00   1.2474877557542505e+00   1.3225655727282510e+00   1.3466358120461142e+00   1.2900832477540349e+00   1.2987795567669946e+00   1.3203692690632265e+00   1.3307348732667945e+00   1.3152422595709761e+00   1.3375622083922962e+00   1.3685788706041835e+00   1.3200269634073885e+00   1.3209240179294626e+00   1.3299127665163057e+00   1.3631412822675026e+00   1.4041806175499720e+00   1.3388659206567561e+00   1.3098194474263780e+00   1.3017532587007961e+00   1.3176551678818325e+00   1.3810417491715048e+00   1.3557206509111490e+00   1.1794641777372923e+00   1.4194790967862927e+00   1.4212304455970728e+00   1.3238448296242868e+00   1.2171952217475566e+00   1.3309182780688125e+00   1.3136391924982171e+00   1.2817911554277437e+00   1.2258953117722027e+00   1.2633834233284809e+00   1.1930128563465712e+00   1.3301933810989441e+00   1.3143350128031592e+00   1.3814454793954594e+00   1.3740816535017573e+00   1.2065821457717525e+00   1.2265281999393511e+00   1.3247852173767380e+00   1.2781586782438061e+00   1.3116955603056164e+00   1.3813433974581180e+00   1.3861067338190820e+00   1.3338618992849793e+00   1.3140929117811500e+00   1.3579398027397227e+00   1.3861537484819044e+00   1.2865575580265087e+00   1.3232040589616823e+00   1.16562102967919