<?xml version="1.0"?>
<VTKFile type="UnstructuredGrid"  version="0.1"  >
<UnstructuredGrid>
<Piece  NumberOfPoints="1109" NumberOfCells="1972">
<Points>
<DataArray  type="Float64"  NumberOfComponents="3"  format="ascii">0 1 0  0 0 0  1 0 0  1 1 0  0.8968458805257912 0.5501332934257217 0  0.9 0.5 0  0.8968458805257911 0.4498667065742781 0  0.8874332644514524 0.4005240451340579 0  0.8719105943553006 0.3527501789261288 0  0.8505226720175453 0.3072985303593135 0  0.823606797749979 0.2648858990830106 0  0.7915874509685645 0.2261811576285244 0  0.7549695958994758 0.1917947028896841 0  0.7143307179915988 0.162268829799194 0  0.6703117166260287 0.138069179013592 0  0.6236067977499788 0.1195773934819385 0  0.5749525258342897 0.1070850997085245 0  0.5251162078117251 0.1007893086286913 0  0.4748837921882747 0.1007893086286913 0  0.4250474741657101 0.1070850997085245 0  0.376393202250021 0.1195773934819386 0  0.3296882833739712 0.1380691790135921 0  0.2856692820084015 0.1622688297991939 0  0.2450304041005242 0.1917947028896843 0  0.2084125490314353 0.2261811576285246 0  0.1763932022500209 0.2648858990830109 0  0.1494773279824546 0.3072985303593139 0  0.1280894056446994 0.3527501789261288 0  0.1125667355485475 0.4005240451340581 0  0.1031541194742088 0.4498667065742783 0  0.09999999999999998 0.5 0  0.1031541194742089 0.5501332934257218 0  0.1125667355485476 0.5994759548659421 0  0.1280894056446995 0.6472498210738713 0  0.1494773279824546 0.6927014696406861 0  0.176393202250021 0.7351141009169893 0  0.2084125490314355 0.7738188423714756 0  0.2450304041005241 0.8082052971103157 0  0.2856692820084012 0.837731170200806 0  0.3296882833739709 0.8619308209864078 0  0.3763932022500212 0.8804226065180615 0  0.4250474741657101 0.8929149002914756 0  0.4748837921882746 0.8992106913713087 0  0.5251162078117254 0.8992106913713087 0  0.5749525258342899 0.8929149002914755 0  0.623606797749979 0.8804226065180614 0  0.6703117166260291 0.8619308209864078 0  0.7143307179915986 0.8377311702008061 0  0.754969595899476 0.8082052971103157 0  0.7915874509685646 0.7738188423714755 0  0.823606797749979 0.7351141009169893 0  0.8505226720175454 0.6927014696406861 0  0.8719105943553006 0.6472498210738712 0  0.8874332644514524 0.599475954865942 0  0 0.5 0  1 0.5 0  0.5 0 0  0.5 1 0  0 0.75 0  0 0.25 0  1 0.25 0  1 0.75 0  0.75 0 0  0.25 0 0  0.25 1 0  0.75 1 0  0 0.625 0  0 0.375 0  1 0.375 0  1 0.625 0  0.625 0 0  0.375 0 0  0.375 1 0  0.625 1 0  0.125 0 0  0.875 0 0  1 0.125 0  0 0.875 0  0.125 1 0  0.875 1 0  0 0.125 0  1 0.875 0  0.1443946775413214 0.1213187937376868 0  0.8556053224586788 0.8786812062623132 0  0.8556053224586785 0.1213187937376867 0  0.1275360334547992 0.8724639665452008 0  0.9261623581710797 0.1875 0  0.09234641934319709 0.2082689144241477 0  0.9076535806568029 0.7917310855758523 0  0.08970099689351971 0.7603836651344988 0  0.2182130526099624 0.9079579669686324 0  0.07086411995581518 0.07086411995581518 0  1 0.0625 0  0.9375 0 0  0.0625 1 0  0 0.9375 0  0.9291358800441849 0.9291358800441849 0  0.7304772975931939 0.08076335202639119 0  0.2695227024068061 0.08076335202639115 0  0.7697819974699807 0.9105968468121929 0  1 0.6875 0  1 0.3125 0  0.06784168511078095 0.2966417331842567 0  0 0.6875 0  0.1875 0 0  0.8125 0 0  0.9212459744619301 0.2681742056774029 0  0.6875 1 0  0.3125 1 0  0.922097136530977 0.07790286346902295 0  0.9261304603587264 0.7150772115644075 0  0 0.8125 0  0.07432186328509671 0.9256781367149033 0  0.06317182982585627 0.84375 0  0.8548473925302104 0.1928285354262928 0  0.6710199663399635 0.9319471281137308 0  0.2914274450692525 0.9272721924131209 0  0.9226595291420543 0.8597667107019437 0  0.0773404708579461 0.1402332892980563 0  0.8125 1 0  0.06054886616517211 0.65625 0  0.9362657027224049 0.3336129027547622 0  0.1841195715992005 0.8363784907223111 0  0.6625377124131507 0.06023416665880475 0  0.3125 0 0  0.34375 0.06016090820395464 0  0.2153846372786545 0.1270381302276244 0  0.8024953780019808 0.07187189600048093 0  0.1546395545758083 0.9367961467266345 0  0.5625 1 0  0.4375 0 0  0.4375 1 0  0.5625 0 0  0.1844766880788185 0.06724298999790632 0  0.9369725282473387 0.6419809811402504 0  0.791523351719164 0.1369023590147849 0  0.8285961364903059 0.9374018659319692 0  1 0.4375 0  0 0.4375 0  1 0.5625 0  0 0.5625 0  0 0.3125 0  1 0.8125 0  0.0625 0 0  0 0.0625 0  0 0.1875 0  1 0.1875 0  1 0.9375 0  0.9375 1 0  0.6875 0 0  0.1875 1 0  0.8126465958421825 0.8329348088176629 0  0.1550798535647612 0.1867680086445373 0  0.8631981559835366 0.06032295929500282 0  0.1449089435554358 0.7884432695884597 0  0.3538206140027237 0.9399564250283491 0  0.944997661525766 0.4151121561005554 0  0.05500233847423393 0.5848878438994446 0  0.0520912947951912 0.40625 0  0.59375 0.05063263303723638 0  0.6113142584645842 0.9411585052804305 0  0.402402637527157 0.05243074290023167 0  0.05237021982595785 0.7146869946988353 0  0.9514280734197595 0.53125 0  0.04857192658024048 0.46875 0  0.1138995451272664 0.2618291859344329 0  0.1276043399716366 0.06698080255494471 0  0.9496852823490703 0.5873315358652272 0  0.7164226875694513 0.8936714072472519 0  0.728445758907293 0.9483406189827143 0  0.05037626111865807 0.3500677784994627 0  0.9425695009311538 0.1320174568820216 0  0.4108317852857326 0.9488345682840208 0  0.5398628985995173 0.04893133705064829 0  0.46875 0.04573672429098317 0  0.4652931800096448 0.9529811055869081 0  0.53125 0.9542632757090168 0  0.8785971272885281 0.7441734326495726 0  0.8518416617605847 0.7931754903661554 0  0.04183404050302509 0.78125 0  0.7612395846848441 0.8595654412716175 0  0.2310588911243982 0.8579303197600836 0  0.04148050284378633 0.21875 0  0.9494864361787021 0.7612608042848362 0  0.9500000000000001 0.4721339993173143 0  0.04999999999999998 0.5278660006826856 0  0.8781553628189985 0.9246252444972441 0  0.8731991046476956 0.2435858407989878 0  0.09811738497342513 0.6912987895906199 0  0.78125 0.9600244726998853 0  0.09951704281279977 0.8094116423849811 0  0.1723930843372325 0.8914409560171174 0  0.21875 0.9592823984315264 0  0.8808053857873319 0.8333253975559158 0  0.8963977713581862 0.1485308906960134 0  0.9538351164349618 0.2296733193971382 0  0.9502525126806526 0.8180081280125184 0  0.2312490385075739 0.04727387874777968 0  0.2715914187620846 0.8835921407480765 0  0.8075381809024645 0.880775593205643 0  0.71875 0.03518728418751645 0  0.28125 0.03518728418751642 0  0.7646042202168328 0.04444036111707996 0  0.9023329991729737 0.03666350737326187 0  0.03401531498238862 0.15625 0  0.1188530488980251 0.1590855287670435 0  0.9585274478449393 0.2940602659505009 0  0.122777080947294 0.7293581095092172 0  0.9670375667902916 0.09375 0  0.2005134857209875 0.1810792546569654 0  0.04567406045797464 0.8878541658538743 0  0.09375 0.966869578205468 0  0.1562008719445321 0.03232788333739163 0  0.8953932105853648 0.3139420780646932 0  0.7990572522972532 0.1815363722387022 0  0.0968875242781685 0.03463409819727443 0  0.03223722036876893 0.09375 0  0.9004223587754672 0.9633108159792649 0  0.9677627796312311 0.90625 0  0.1015654613822437 0.1029847255361322 0  0.9612688796250578 0.9612688796250578 0  0 0.03125 0  0.03125 0 0  0.04144949962501476 0.9585505003749852 0  0.9558898336496962 0.04411016635030385 0  0.9068917513393455 0.6748714165270275 0  0.1368346895292699 0.830580202512584 0  0.1325215314767946 0.2232188145997174 0  0.07053058491102715 0.2523250971165124 0  0.28125 1 0  0.2618257196382527 0.9585732837283344 0  0.08628220552312613 0.8784418410901162 0  0.6885162251696433 0.09694521726220126 0  0.7451861497985837 0.1260293295250874 0  0.313422114933215 0.09491014745286984 0  0.2604190570795071 0.1249189143540631 0  0.9242490330121279 0.3761177923443456 0  0.8294827367589617 0.1534479284350518 0  0 0.28125 0  0.1085704015556412 0.3026527142683792 0  0.6454377779583714 0.9642341400769985 0  0.1735682150935896 0.1501527832362767 0  0.9118639212665761 0.2270478094042325 0  0.9675029085737417 0.7231519194735394 0  0.9540854621793986 0.6818714685662951 0  0.3411855214203015 0.9011195850022233 0  0.2203778463487443 0.08657146517086198 0  0.04103470738435357 0.04103470738435357 0  0.5692124642834736 0.9350661676969988 0  0.1143804055696223 0.9319617439078584 0  0.08871656954519293 0.3663659127109965 0  0.9630811790855398 0.168250321868886 0  0.8941478109554366 0.1077225817667272 0  0.7685953432959879 0.09339992494635127 0  0.9613334331586147 0.8673647296762501 0  0.84375 0 0  0.8276419188889859 0.03874003995670209 0  0.4987074584280061 0.9312004428379874 0  0.4999999999999999 0.07012294039149713 0  0.906353444207591 0.8962759602721756 0  0.8317000502825128 0.2255938539236174 0  0.060982293117454 0.1847248153131282 0  0.84375 1 0  0.8601163332513452 0.9625346208269469 0  0.07696867235812772 0.6190771663714262 0  0.03866375363197156 0.624370156890833 0  0.386395970129115 0.9182613855572013 0  0.59375 1 0  0.03763634871355165 0.2725691404761272 0  1 0.34375 0  0.9619513789393942 0.3638256452123659 0  0.1705891391383945 0.2215719862571997 0  0.2993345649440622 0.9643978827856838 0  0.2548390693531445 0.917543736811073 0  0.4376701674058487 0.06983678836603174 0  0.6249880952696493 0.07804203554412367 0  0.8891633930840495 0.7080603551933189 0  0 0.65625 0  0.8857454763750297 0.2783067670731572 0  1 0.65625 0  0 0.59375 0  0.9147359581367025 0.7498372322849914 0  0.34375 1 0  0.08128436453222096 0.3306040779845135 0  0.8370204413255111 0.08803482611562097 0  0.4399236117509409 0.9264634199869409 0  0.3763243110806382 0.08093997073896844 0  1 0.78125 0  0.3058827875685617 0.8943637152968825 0  0.891027260700638 0.1971556622156984 0  0.1814462944911871 0.9630031969500565 0  0.1812917788273262 0.1067749496803429 0  0.2291605611046911 0.1598957180171764 0  0.630525566101238 0.03837025329843378 0  0.03363261960646192 0.92260900189631 0  0.2960793559902691 0.1260912307633523 0  0.03663553287191564 0.8179172045954961 0  0.02996523389584273 0.8560987956667739 0  0.09880166525369549 0.8450583124835681 0  0.6923212173088138 0.150169004406393 0  0.502
[...]
<CellData  Scalars="detF"> 
<DataArray  type="Float64"  Name="detF"  format="ascii">1.1762172099454222e+00   1.2291783501287628e+00   1.2472402732478232e+00   1.2431551904605038e+00   1.2566819145165866e+00   1.2939493735230636e+00   1.2408545750204423e+00   1.2151510718778915e+00   1.2287734617329584e+00   1.2714723097587184e+00   1.2557596441205248e+00   1.2030059316831623e+00   1.2448969906572787e+00   1.2722057790177805e+00   1.2166060172499287e+00   1.2343173811945256e+00   1.2424572247704917e+00   1.2855732968779705e+00   1.1775828572373308e+00   1.2151063670049886e+00   1.2192047557716821e+00   1.2358851776404249e+00   1.2687203222467465e+00   1.2129464524479379e+00   1.2322146685401147e+00   1.1794718823209793e+00   1.2244418924525504e+00   1.2175335765708453e+00   1.2088084191181483e+00   1.2379689774918494e+00   1.2709965042605318e+00   1.2295671138328039e+00   1.2172842282090464e+00   1.2440198286964756e+00   1.2744162525676483e+00   1.1777245927674533e+00   1.2493179147780498e+00   1.2656577084269620e+00   1.1523203029200331e+00   1.2122788085330840e+00   1.2125389194782152e+00   1.1588990344392798e+00   1.2497101720581485e+00   1.2545006361194759e+00   1.2328478665840312e+00   1.2588010207719997e+00   1.2511205258441813e+00   1.2857618843239011e+00   1.2160153822795512e+00   1.2298604658574785e+00   1.2303083908645380e+00   1.2563554334819327e+00   1.2455067919694114e+00   1.2138791668430724e+00   1.2276935469741261e+00   1.2367597066860201e+00   1.2277967575509772e+00   1.2687714836876571e+00   1.2364217693095205e+00   1.1488577489653435e+00   1.1611181821836309e+00   1.2171795170468824e+00   1.2430060251834882e+00   1.2083979935808478e+00   1.1626413180690622e+00   1.2603550031378541e+00   1.2130008268948378e+00   1.1496062806175011e+00   1.2361675168531563e+00   1.2117118337601107e+00   1.2283483245474422e+00   1.2287614129517981e+00   1.1977482005141666e+00   1.2439986379535264e+00   1.2330427701954463e+00   1.2346635667671753e+00   1.2301433006218323e+00   1.2411421567365188e+00   1.2466548972635947e+00   1.2248090404116039e+00   1.2565900811488335e+00   1.2270732385994882e+00   1.2512080296605572e+00   1.2253819884800918e+00   1.2322420693004879e+00   1.2314974005556267e+00   1.2203901960327876e+00   1.2327098023064320e+00   1.2159269580410512e+00   1.2400205086414025e+00   1.1292169032086370e+00   1.2264224470691658e+00   1.2165294533324316e+00   1.2494909076179539e+00   1.2349792145363885e+00   1.2124022436689204e+00   1.2189245931811663e+00   1.2565123940486209e+00   1.2225077538055125e+00   1.2510277761242901e+00   1.2048930909646882e+00   1.2282074208177216e+00   1.2352097153219863e+00   1.2238909471157189e+00   1.1920562318676309e+00   1.2020179363711947e+00   1.1956445339447090e+00   1.2584381102225972e+00   1.2822583094407511e+00   1.2191566588270144e+00   1.2395438763452322e+00   1.1454163556166719e+00   1.2257433812454361e+00   1.2766409973807789e+00   1.2547312137297137e+00   1.2454057751876990e+00   1.1916174063006106e+00   1.2144173153665245e+00   1.2691268145292149e+00   1.2844504123556673e+00   1.2344038726738846e+00   1.2677379553108237e+00   1.2655882434056200e+00   1.2553785850958499e+00   1.2354819149208121e+00   1.2468835667775933e+00   1.2437343759975086e+00   1.2339738271769600e+00   1.2553400849251399e+00   1.2880496050856873e+00   1.2431497250581960e+00   1.1559311463947306e+00   1.2761455993330144e+00   1.2617197888991971e+00   1.2043741873817502e+00   1.2304563136518734e+00   1.1671058730037631e+00   1.2091430442020783e+00   1.2246527217894718e+00   1.2143022634879612e+00   1.2099244733756487e+00   1.2261793906820209e+00   1.3248824159043699e+00   1.2338170927609684e+00   1.2783219921134146e+00   1.2708247992573809e+00   1.2548248262886974e+00   1.1895398593034672e+00   1.2495640580474490e+00   1.2580057308033792e+00   1.2417088701784098e+00   1.2939077495270834e+00   1.2701249030561077e+00   1.2966502963092965e+00   1.2459885373360218e+00   1.2640139086586115e+00   1.2526397331096999e+00   1.2041540660975523e+00   1.2482895504513911e+00   1.2636568907156631e+00   1.2822394134690231e+00   1.3397570145755697e+00   1.2423474887804951e+00   1.2986659915574301e+00   1.3076894180544152e+00   1.2524644762241490e+00   1.2384327835883484e+00   1.2371208874428894e+00   1.3088331871709857e+00   1.2835770877537642e+00   1.2324594994815745e+00   1.2760955222366894e+00   1.2520052786982334e+00   1.2431024290011745e+00   1.2455152973289023e+00   1.1820753874214995e+00   1.2279619821641277e+00   1.2626003005276412e+00   1.2539490790907928e+00   1.2464913785687173e+00   1.2331159576390707e+00   1.2641767921165685e+00   1.2808317238232734e+00   1.2483263834359799e+00   1.2706518491124579e+00   1.2484530124861524e+00   1.2357345361229144e+00   1.2275725020089723e+00   1.2428534451309732e+00   1.2450739924353338e+00   1.2417792412652309e+00   1.2418936826406450e+00   1.2366787868884437e+00   1.3167285369429926e+00   1.2449935289912677e+00   1.2863323299619762e+00   1.2172914509296169e+00   1.2421183778300722e+00   1.2144275343634559e+00   1.1870335580108295e+00   1.2478184059823050e+00   1.2405929352814162e+00   1.2121682146321393e+00   1.2535967629704257e+00   1.2426254209696890e+00   1.2379324415413528e+00   1.2317018666261206e+00   1.2387877792589461e+00   1.2327427505348392e+00   1.2283068218146000e+00   1.2590035938448063e+00   1.2555727829053924e+00   1.2143768243637871e+00   1.2255554715909678e+00   1.2311694984915766e+00   1.2287285659646956e+00   1.2172194412696780e+00   1.1742332239960047e+00   1.2435210261535847e+00   1.2496596039114272e+00   1.2330409027225717e+00   1.2355460162460810e+00   1.2359809632114083e+00   1.2331040893795659e+00   1.2343072535758297e+00   1.2285035949962824e+00   1.1842320866304059e+00   1.2088112794256862e+00   1.2389443947733274e+00   1.2310469783699964e+00   1.2507726181905101e+00   1.1710782221643474e+00   1.2365346322124398e+00   1.2200907867528827e+00   1.1817566699853375e+00   1.2685038475662080e+00   1.2703860583664710e+00   1.1567520688681077e+00   1.1625899903423387e+00   1.2232346403879626e+00   1.1868632191463833e+00   1.2239079433297400e+00   1.2240858994398707e+00   1.2880728937835202e+00   1.2551774952489567e+00   1.1977911823534428e+00   1.2068047626039176e+00   1.2066977517536228e+00   1.1800542418066324e+00   1.1090179525918094e+00   1.2074418238563487e+00   1.2122574772824253e+00   1.1958590730796570e+00   1.1817320522595860e+00   1.1408726186964466e+00   1.1120311516471977e+00   1.1514919591550119e+00   1.1571043165046377e+00   1.1261806423810081e+00   1.2205789627119847e+00   1.2662671733318522e+00   1.2602887483381480e+00   1.2695131033001985e+00   1.2439693756499850e+00   1.2405501306574509e+00   1.2418009209121630e+00   1.2179055318429248e+00   1.2753498572140565e+00   1.2363200477453717e+00   1.2485351122955108e+00   1.2395777990132650e+00   1.2426609356716951e+00   1.2040160362021737e+00   1.2412306407058733e+00   1.2288179855340580e+00   1.2661520191238425e+00   1.2252473078112023e+00   1.1517300324960109e+00   1.2228290112021232e+00   1.2560440904342525e+00   1.2586064277301965e+00   1.2959003301152456e+00   1.2669426536974293e+00   1.1938993601266401e+00   1.2238828606619492e+00   1.2452319467464177e+00   1.2637558911871896e+00   1.2497861578301142e+00   1.2442481224689395e+00   1.2491864279528482e+00   1.2760717497174394e+00   1.2029950301845784e+00   1.2423964227183184e+00   1.2293718203446460e+00   1.1462375929355870e+00   1.1290294025291372e+00   1.2034649864761255e+00   1.2381432381963571e+00   1.2247916094505775e+00   1.1892037884241400e+00   1.2222538957238789e+00   1.2310926763077650e+00   1.2335065040754045e+00   1.2067312522138536e+00   1.2371577335515715e+00   1.2311736650037479e+00   1.1692710960754797e+00   1.2057819221235753e+00   1.2260308634990842e+00   1.2068647237344998e+00   1.2197448978504495e+00   1.2202594589004012e+00   1.2363321293986724e+00   1.2457251746282125e+00   1.2434749596067085e+00   1.2208968731011405e+00   1.1896704984869422e+00   1.2254257141428595e+00   1.2445776235673496e+00   1.2193083522057206e+00   1.1997860035179340e+00   1.1642283565691887e+00   1.2265101344698850e+00   1.2093926047388293e+00   1.2163742895487120e+00   1.2666968744379645e+00   1.2182956155637541e+00   1.1834538405600863e+00   1.2903289609982718e+00   1.2877397340708647e+00   1.2421348345339431e+00   1.2257979044153460e+00   1.2144435887222962e+00   1.2921557144128879e+00   1.2732840750251291e+00   1.2678024896451003e+00   1.2819528370791142e+00   1.2665550679860749e+00   1.2794996848290541e+00   1.2594838855812480e+00   1.2368703420953182e+00   1.2410107268147705e+00   1.2410451855563569e+00   1.2466247889856625e+00   1.1434664074385150e+00   1.1922009848636079e+00   1.2607442418152515e+00   1.1953531432155642e+00   1.2795100004785007e+00   1.2488791221183684e+00   1.2409880744106729e+00   1.2429369050084256e+00   1.2662636262981901e+00   1.2606086578538598e+00   1.2920855140582557e+00   1.2235267675000605e+00   1.2369720896500100e+00   1.2554731109203656e+00   1.2373808589590647e+00   1.2597779761233407e+00   1.2097545656190178e+00   1.2410167880039502e+00   1.2411063467006465e+00   1.2067890376957640e+00   1.2017226551302775e+00   1.1872736498318668e+00   1.2225684052370376e+00   1.2086631602738891e+00   1.2285330700582604e+00   1.2440185016020298e+00   1.2402874470397676e+00   1.1992294567428718e+00   1.2356495755220080e+00   1.2806688270464319e+00   1.2760492208901160e+00   1.2565998317622171e+00   1.2349461061024702e+00   1.1898392047571633e+00   1.2097923213739366e+00   1.1566964081008395e+00   1.1992585373235307e+00   1.1995592715542727e+00   1.1632152931977398e+00   1.2437873518890061e+00   1.2451185180286906e+00   1.1938536216105646e+00   1.2245524838764046e+00   1.3099637968935254e+00   1.3505122681960562e+00   1.2041992624444884e+00   1.1838551423957808e+00   1.1933132084236957e+00   1.2730629132092981e+00   1.2882444552986640e+00   1.3056334943506547e+00   1.2020751382667008e+00   1.2445176072845017e+00   1.2259745481823594e+00   1.2487918954564203e+00   1.2337612262121185e+00   1.2608490577535532e+00   1.2386025437962713e+00   1.2240531640159853e+00   1.2268791403041914e+00   1.2470854149787880e+00   1.2334670976732380e+00   1.2369952815206549e+00   1.2325139930570064e+00   1.2738765461163564e+00   1.3016089898108594e+00   1.3519726388118871e+00   1.3512319716842867e+00   1.2515185899956827e+00   1.2534105828628153e+00   1.1677594497856854e+00   1.2055357894736527e+00   1.2653310598554028e+00   1.3095921231558403e+00   1.2620892736574632e+00   1.2837349724704086e+00   1.2485675054339229e+00   1.2590575785174214e+00   1.2242328953064190e+00   1.1790102880312878e+00   1.3293470371725848e+00   1.2315743835769992e+00   1.2709441645602468e+00   1.2276032353465951e+00   1.2237842899293643e+00   1.2442570663228951e+00   1.2568744234489928e+00   1.2547613033454590e+00   1.2586393431272151e+00   1.2336634234174759e+00   1.2825817898608767e+00   1.2631048965760161e+00   1.3236817619225574e+00   1.1869060068284236e+00   1.2595874108009932e+00   1.2630928491282869e+00   1.2430181302383536e+00   1.2311716254272549e+00   1.2162460716950161e+00   1.2205320037230227e+00   1.1861233676621952e+00   1.3499694156103388e+00   1.2008413560742133e+00   1.2406189801921796e+00   1.2578481384112861e+00   1.2108768387745843e+00   1.2233322807982574e+00   1.2070712012142899e+00   1.2035299541719300e+00   1.2813532092097943e+00   1.2749397135315106e+00   1.2783291217752935e+00   1.2575040594659654e+00   1.2601922682520568e+00   1.2500061852733095e+00   1.2595421160460238e+00   1.2084422600054472e+00   1.2138832017532395e+00   1.2345578906449546e+00   1.2299552488201839e+00   1.2516907578481116e+00   1.2804340030668546e+00   1.2645993925303669e+00   1.2675848278495827e+00   1.2158473244616073e+00   1.2210359210928792e+00   1.2352168128403229e+00   1.2608082642293443e+00   1.2779785386003975e+00   1.2584432985403844e+00   1.2359732674054305e+00   1.2437702129378652e+00   1.2287671427023543e+00   1.2305300514329627e+00   1.3117927918089871e+00   1.2962322965182866e+00   1.3380922612804473e+00   1.1433629399005152e+00   1.2153621644954851e+00   1.1505208871243411e+00   1.2582085388666155e+00   1.2778497934273101e+00   1.2402927883746302e+00   1.2439931233335706e+00   1.2041101332857520e+00   1.2145255507404846e+00   1.2223486186594095e+00   1.2338505603772481e+00   1.2471458381267855e+00   1.2525864805726272e+00   1.2165453990404245e+00   1.2678085260671399e+00   1.2268768315729985e+00   1.2313753531873726e+00   1.2392801608298345e+00   1.2373075694231634e+00   1.2447897501915735e+00   1.2684434874500599e+00   1.2484763005016770e+00   1.2263963171440462e+00   1.2271920956098514e+00   1.2178617303455299e+00   1.2375817266177340e+00   1.3252674004326981e+00   1.2733149186038821e+00   1.2596144647818130e+00   1.2956108365279466e+00   1.2394730003765855e+00   1.1928858496386239e+00   1.1725854675617939e+00   1.1904126975183005e+00   1.2213261972621694e+00   1.2482449097546222e+00   1.2343338586432682e+00   1.2408378383317067e+00   1.2872102987911938e+00   1.2561649354105124e+00   1.2405815210558466e+00   1.2423429907625272e+00   1.2506058198616345e+00   1.2977458960285613e+00   1.3523458925993046e+00   1.2434342107564735e+00   1.2431545465340592e+00   1.2854747846231158e+00   1.2554939113154535e+00   1.2802099734892070e+00   1.2719886420828821e+00   1.2552265298187824e+00   1.2569359330594509e+00   1.2286335272033360e+00   1.2118811089080381e+00   1.2330010391290027e+00   1.1963107429586088e+00   1.1860166987982155e+00   1.2298180484912393e+00   1.2295425299351672e+00   1.2144457047657395e+00   1.2795853496172600e+00   1.2925813782197799e+00   1.1689349402166824e+00   1.1679774296322336e+00   1.1672972882893728e+00   1.1295626103296172e+00   1.1306518922473863e+00   1.1116252754661611e+00   1.1699322298340080e+00   1.1647940239325962e+00   1.1926522570051568e+00   1.1442338864653110e+00   1.2136799531785194e+00   1.1822508109324423e+00   1.1664500477355768e+00   1.1865466663254978e+00   1.1902487913407116e+00   1.1621671720951898e+00   1.1658138753460061e+00   1.1620137592184667e+00   1.2757887199812976e+00   1.2939522042240656e+00   1.2481235981933119e+00   1.2398866008715845e+00   1.2277858595461280e+00   1.2542902610926006e+00   1.2056160377595604e+00   1.2214114710467352e+00   1.2718395732571870e+00   1.2988176443403983e+00   1.1721189399718011e+00   1.1636557277771402e+00   1.2018711804983713e+00   1.2217299872093119e+00   1.2287387718069784e+00   1.2451563868158311e+00   1.2360632485011429e+00   1.2146312410929663e+00   1.3187256236788323e+00   1.2928993639467454e+00   1.2972428181849949e+00   1.2845184420480986e+00   1.3389419009292109e+00   1.3501848766750533e+00   1.3181253799588819e+00   1.2738888673530442e+00   1.2716198939358672e+00   1.2981587151495668e+00   1.2667244722835012e+00   1.2970963331791923e+00   1.3371294956885691e+00   1.2990162709850355e+00   1.2818914820290677e+00   1.3007178819014362e+00   1.1822292841374382e+00   1.1439606284332782e+00   1.1659122634117256e+00   1.1470114574215458e+00   1.1246232173435782e+00   1.1479083085897130e+00   1.0733932316204924e+00   1.0736157701434377e+00   1.1085905724692435e+00   1.1280050345928534e+00   1.2486310292309690e+00   1.2908414868867535e+00   1.2065665080198742e+00   1.1852906073584371e+00   1.2291042907491676e+00   1.2200798278405796e+00   1.2671827634466410e+00   1.2020414039783767e+00   1.1925189964663643e+00   1.2097828057970532e+00   1.1608277222828831e+00   1.2339525899466459e+00   1.2425117100678720e+00   1.2152223607773489e+00   1.2293377207107521e+00   1.2213263569148676e+00   1.2227806833134305e+00   1.1782847032969914e+00   1.2079383272448232e+00   1.3362486675637770e+00   1.2967283938548213e+00   1.2605088499242312e+00   1.2881653342333108e+00   1.3088143784210757e+00   1.2764606528027385e+00   1.2034216246567293e+00   1.2042667201079396e+00   1.2015809923563827e+00   1.2128883110543851e+00   1.2218852157073750e+00   1.2256723288307456e+00   1.2352787284975824e+00   1.1600138163476967e+00   1.2417659705502475e+00   1.2838603442826393e+00   1.2940523867069711e+00   1.1764775986814342e+00   1.2595206585523404e+00   1.2314518947988018e+00   1.3526795202911024e+00   1.3087191722931464e+00   1.2174487253164017e+00   1.3531581819060803e+00   1.3088286864826539e+00   1.2038109127402434e+00   1.1963548718533061e+00   1.2116758120372157e+00   1.1962685973421192e+00   1.2254956690891923e+00   1.2264066305421781e+00   1.2404042877342685e+00   1.2198078745256473e+00   1.2256325145914428e+00   1.2947960902005478e+00   1.1598427051004891e+00   1.1745074260438753e+00   1.1864925952984202e+00   1.2174709223137596e+00   1.2712358358860489e+00   1.2436164388992086e+00   1.1712990705664024e+00   1.2150260726579334e+00   1.2023932287694532e+00   1.2712733201196806e+00   1.2179078123084044e+00   1.1600870925777711e+00   1.2062749875428280e+00   1.2237898121157500e+00   1.2048576275581391e+00   1.2146695933015308e+00   1.1636187067495298e+00   1.1992155574863466e+00   1.1673410150749428e+00   1.2505122594149862e+00   1.2606086315567826e+00   1.1459402149485969e+00   1.1821977155194410e+00   1.2496074929653032e+00   1.2389252909201558e+00   1.2657875918206249e+00   1.2287702516806953e+00   1.2420806077962550e+00   1.2588773333417240e+00   1.2090883652253370e+00   1.1473569720460373e+00   1.2780594772492724e+00   1.2749107168853642e+00   1.2341540279294929e+00   1.2536941930526204e+00   1.2279433455269917e+00   1.2664318234007244e+00   1.2552176480355393e+00   1.2545426066111220e+00   1.2700552489981822e+00   1.1887773558215806e+00   1.2213566964586193e+00   1.1697669699617472e+00   1.1948944847564724e+00   1.1852109621591709e+00   1.1871988715228092e+00   1.2626915022747309e+00   1.2235646767725334e+00   1.3252686194614964e+00   1.2991236423873800e+00   1.2437381531226768e+00   1.2430978060889675e+00   1.2015723439622301e+00   1.2426996560127961e+00   1.2260785407059354e+00   1.3355069924180605e+00   1.2846910603303632e+00   1.2046566494432864e+00   1.1643008025669517e+00   1.1858363895358737e+00   1.1471419188444334e+00   1.2630243331950790e+00   1.2782750804428917e+00   1.2771511920906606e+00   1.2596168796824527e+00   1.1685232004414647e+00   1.2133428561185566e+00   1.2255310119406306e+00   1.2185478963420107e+00   1.2239650552153067e+00   1.2238827191301360e+00   1.2082352246497896e+00   1.2242473938033731e+00   1.2249525669094750e+00   1.2459062037677440e+00   1.2451127262246169e+00   1.2523186477801929e+00   1.2369625520231418e+00   1.2328297377280137e+00   1.2378239855136495e+00   1.2389256392465258e+00   1.2235386786124141e+00   1.2371761656235778e+00   1.2322386076582286e+00   1.1538506180104071e+00   1.1982609467709178e+00   1.1526068433291579e+00   1.1743380458876245e+00   1.2422057053116895e+00   1.2606309809209346e+00   1.2090643203220339e+00   1.2168562592199521e+00   1.2356555451784885e+00   1.2402335080136833e+00   1.2356618176002669e+00   1.2486538933735623e+00   1.2679475530539452e+00   1.2390595964485787e+00   1.2416602544128064e+00   1.2494056718807591e+00   1.2700671261574716e+00   1.2958098688360886e+00   1.2432326380315244e+00   1.2221330766683502e+00   1.2289985959212881e+00   1.2429078062850414e+00   1.2638015401294744e+00   1.2463658584095207e+00   1.1275634895860993e+00   1.3088349822835683e+00   1.3088779939726829e+00   1.2458941924431612e+00   1.1708699409536969e+00   1.2417877295333195e+00   1.2309312601559557e+00   1.2151938505389424e+00   1.1781777780764715e+00   1.2054965551881396e+00   1.1614036347016077e+00   1.2460467084004652e+00   1.2363262495249006e+00   1.2667294324981611e+00   1.2679107427712430e+00   1.1474711407300511e+00   1.1900226481978866e+00   1.2460654082606295e+00   1.2239096077565357e+00   1.2390833099618159e+00   1.2778047398147987e+00   1.2748226586913034e+00   1.2411612139493735e+00   1.2295885916088782e+00   1.2596831630721959e+00   1.2752641230541442e+00   1.2193223109058786e+00   1.2441296704754468e+00   1.15457979852615