<?xml version="1.0"?>
<VTKFile type="UnstructuredGrid"  version="0.1"  >
<UnstructuredGrid>
<Piece  NumberOfPoints="1109" NumberOfCells="1972">
<Points>
<DataArray  type="Float64"  NumberOfComponents="3"  format="ascii">0 1 0  0 0 0  1 0 0  1 1 0  0.8968458805257912 0.5501332934257217 0  0.9 0.5 0  0.8968458805257911 0.4498667065742781 0  0.8874332644514524 0.4005240451340579 0  0.8719105943553006 0.3527501789261288 0  0.8505226720175453 0.3072985303593135 0  0.823606797749979 0.2648858990830106 0  0.7915874509685645 0.2261811576285244 0  0.7549695958994758 0.1917947028896841 0  0.7143307179915988 0.162268829799194 0  0.6703117166260287 0.138069179013592 0  0.6236067977499788 0.1195773934819385 0  0.5749525258342897 0.1070850997085245 0  0.5251162078117251 0.1007893086286913 0  0.4748837921882747 0.1007893086286913 0  0.4250474741657101 0.1070850997085245 0  0.376393202250021 0.1195773934819386 0  0.3296882833739712 0.1380691790135921 0  0.2856692820084015 0.1622688297991939 0  0.2450304041005242 0.1917947028896843 0  0.2084125490314353 0.2261811576285246 0  0.1763932022500209 0.2648858990830109 0  0.1494773279824546 0.3072985303593139 0  0.1280894056446994 0.3527501789261288 0  0.1125667355485475 0.4005240451340581 0  0.1031541194742088 0.4498667065742783 0  0.09999999999999998 0.5 0  0.1031541194742089 0.5501332934257218 0  0.1125667355485476 0.5994759548659421 0  0.1280894056446995 0.6472498210738713 0  0.1494773279824546 0.6927014696406861 0  0.176393202250021 0.7351141009169893 0  0.2084125490314355 0.7738188423714756 0  0.2450304041005241 0.8082052971103157 0  0.2856692820084012 0.837731170200806 0  0.3296882833739709 0.8619308209864078 0  0.3763932022500212 0.8804226065180615 0  0.4250474741657101 0.8929149002914756 0  0.4748837921882746 0.8992106913713087 0  0.5251162078117254 0.8992106913713087 0  0.5749525258342899 0.8929149002914755 0  0.623606797749979 0.8804226065180614 0  0.6703117166260291 0.8619308209864078 0  0.7143307179915986 0.8377311702008061 0  0.754969595899476 0.8082052971103157 0  0.7915874509685646 0.7738188423714755 0  0.823606797749979 0.7351141009169893 0  0.8505226720175454 0.6927014696406861 0  0.8719105943553006 0.6472498210738712 0  0.8874332644514524 0.599475954865942 0  0.5 0 0  0.5 1 0  0 0.5 0  1 0.5 0  0.25 0 0  0.75 0 0  0.75 1 0  0.25 1 0  0 0.75 0  0 0.25 0  1 0.25 0  1 0.75 0  0.375 0 0  0.625 0 0  0.625 1 0  0.375 1 0  0 0.625 0  0 0.375 0  1 0.375 0  1 0.625 0  0.125 0 0  0.875 0 0  0 0.875 0  0.125 1 0  0.875 1 0  0 0.125 0  1 0.125 0  1 0.875 0  0.1443946775413214 0.1213187937376868 0  0.8556053224586788 0.8786812062623132 0  0.8556053224586785 0.1213187937376867 0  0.1275360334547992 0.8724639665452008 0  0.9261623581710797 0.1875 0  0.09234641934319709 0.2082689144241477 0  0.9076535806568029 0.7917310855758523 0  0.08970099689351971 0.7603836651344988 0  0.2182130526099624 0.9079579669686324 0  0.07086411995581518 0.07086411995581518 0  0.0625 1 0  0 0.9375 0  1 0.0625 0  0.9375 0 0  0.9291358800441849 0.9291358800441849 0  0.7304772975931939 0.08076335202639119 0  0.2695227024068061 0.08076335202639115 0  0.7697819974699807 0.9105968468121929 0  1 0.6875 0  1 0.3125 0  0.06784168511078095 0.2966417331842567 0  0 0.6875 0  0.1875 0 0  0.8125 0 0  0.9212459744619301 0.2681742056774029 0  0.3125 1 0  0.6875 1 0  0.922097136530977 0.07790286346902295 0  0.9261304603587264 0.7150772115644075 0  0 0.8125 0  0.07432186328509671 0.9256781367149033 0  0.06317182982585627 0.84375 0  0.8548473925302104 0.1928285354262928 0  0.2914274450692525 0.9272721924131209 0  0.6710199663399635 0.9319471281137308 0  0.9226595291420543 0.8597667107019437 0  0.0773404708579461 0.1402332892980563 0  0.8125 1 0  0.06054886616517211 0.65625 0  0.9362657027224049 0.3336129027547622 0  0.1841195715992005 0.8363784907223111 0  0.6625377124131507 0.06023416665880475 0  0.3125 0 0  0.34375 0.06016090820395464 0  0.2153846372786545 0.1270381302276244 0  0.8024953780019808 0.07187189600048093 0  0.1546395545758083 0.9367961467266345 0  0.5625 1 0  0.4375 0 0  0.4375 1 0  0.5625 0 0  0.1844766880788185 0.06724298999790632 0  0.9369725282473387 0.6419809811402504 0  0.791523351719164 0.1369023590147849 0  0.8285961364903059 0.9374018659319692 0  1 0.4375 0  0 0.4375 0  1 0.5625 0  0 0.5625 0  0 0.3125 0  1 0.8125 0  0.0625 0 0  0 0.0625 0  0 0.1875 0  1 0.1875 0  1 0.9375 0  0.9375 1 0  0.6875 0 0  0.1875 1 0  0.8126465958421825 0.8329348088176629 0  0.1550798535647612 0.1867680086445373 0  0.8631981559835366 0.06032295929500282 0  0.1449089435554358 0.7884432695884597 0  0.3538206140027237 0.9399564250283491 0  0.944997661525766 0.4151121561005554 0  0.05500233847423393 0.5848878438994446 0  0.0520912947951912 0.40625 0  0.59375 0.05063263303723638 0  0.6113142584645842 0.9411585052804305 0  0.402402637527157 0.05243074290023167 0  0.05237021982595785 0.7146869946988353 0  0.9514280734197595 0.53125 0  0.04857192658024048 0.46875 0  0.1138995451272664 0.2618291859344329 0  0.1276043399716366 0.06698080255494471 0  0.9496852823490703 0.5873315358652272 0  0.7164226875694513 0.8936714072472519 0  0.728445758907293 0.9483406189827143 0  0.05037626111865807 0.3500677784994627 0  0.9425695009311538 0.1320174568820216 0  0.4108317852857326 0.9488345682840208 0  0.5398628985995173 0.04893133705064829 0  0.46875 0.04573672429098317 0  0.4652931800096448 0.9529811055869081 0  0.53125 0.9542632757090168 0  0.8785971272885281 0.7441734326495726 0  0.8518416617605847 0.7931754903661554 0  0.04183404050302509 0.78125 0  0.7612395846848441 0.8595654412716175 0  0.2310588911243982 0.8579303197600836 0  0.04148050284378633 0.21875 0  0.9494864361787021 0.7612608042848362 0  0.9500000000000001 0.4721339993173143 0  0.04999999999999998 0.5278660006826856 0  0.8781553628189985 0.9246252444972441 0  0.8731991046476956 0.2435858407989878 0  0.09811738497342513 0.6912987895906199 0  0.78125 0.9600244726998853 0  0.09951704281279977 0.8094116423849811 0  0.1723930843372325 0.8914409560171174 0  0.21875 0.9592823984315264 0  0.8808053857873319 0.8333253975559158 0  0.8963977713581862 0.1485308906960134 0  0.9538351164349618 0.2296733193971382 0  0.9502525126806526 0.8180081280125184 0  0.2312490385075739 0.04727387874777968 0  0.2715914187620846 0.8835921407480765 0  0.8075381809024645 0.880775593205643 0  0.71875 0.03518728418751645 0  0.28125 0.03518728418751642 0  0.7646042202168328 0.04444036111707996 0  0.9023329991729737 0.03666350737326187 0  0.03401531498238862 0.15625 0  0.1188530488980251 0.1590855287670435 0  0.9585274478449393 0.2940602659505009 0  0.122777080947294 0.7293581095092172 0  0.9670375667902916 0.09375 0  0.2005134857209875 0.1810792546569654 0  0.04567406045797464 0.8878541658538743 0  0.09375 0.966869578205468 0  0.1562008719445321 0.03232788333739163 0  0.8953932105853648 0.3139420780646932 0  0.7990572522972532 0.1815363722387022 0  0.0968875242781685 0.03463409819727443 0  0.03223722036876893 0.09375 0  0.9004223587754672 0.9633108159792649 0  0.9677627796312311 0.90625 0  0.1015654613822437 0.1029847255361322 0  0.9612688796250578 0.9612688796250578 0  0 0.03125 0  0.03125 0 0  0.9558898336496962 0.04411016635030385 0  0.04144949962501476 0.9585505003749852 0  0.9068917513393455 0.6748714165270275 0  0.1368346895292699 0.830580202512584 0  0.1325215314767946 0.2232188145997174 0  0.07053058491102715 0.2523250971165124 0  0.28125 1 0  0.2618257196382527 0.9585732837283344 0  0.08628220552312613 0.8784418410901162 0  0.6885162251696433 0.09694521726220126 0  0.7451861497985837 0.1260293295250874 0  0.313422114933215 0.09491014745286984 0  0.2604190570795071 0.1249189143540631 0  0.9242490330121279 0.3761177923443456 0  0.8294827367589617 0.1534479284350518 0  0 0.28125 0  0.1085704015556412 0.3026527142683792 0  0.6454377779583714 0.9642341400769985 0  0.1735682150935896 0.1501527832362767 0  0.9118639212665761 0.2270478094042325 0  0.9675029085737417 0.7231519194735394 0  0.9540854621793986 0.6818714685662951 0  0.3411855214203015 0.9011195850022233 0  0.2203778463487443 0.08657146517086198 0  0.04103470738435357 0.04103470738435357 0  0.5692124642834736 0.9350661676969988 0  0.1143804055696223 0.9319617439078584 0  0.08871656954519293 0.3663659127109965 0  0.9630811790855398 0.168250321868886 0  0.8941478109554366 0.1077225817667272 0  0.7685953432959879 0.09339992494635127 0  0.9613334331586147 0.8673647296762501 0  0.84375 0 0  0.8276419188889859 0.03874003995670209 0  0.4987074584280061 0.9312004428379874 0  0.4999999999999999 0.07012294039149713 0  0.906353444207591 0.8962759602721756 0  0.8317000502825128 0.2255938539236174 0  0.060982293117454 0.1847248153131282 0  0.84375 1 0  0.8601163332513452 0.9625346208269469 0  0.07696867235812772 0.6190771663714262 0  0.03866375363197156 0.624370156890833 0  0.386395970129115 0.9182613855572013 0  0.59375 1 0  0.03763634871355165 0.2725691404761272 0  1 0.34375 0  0.9619513789393942 0.3638256452123659 0  0.1705891391383945 0.2215719862571997 0  0.2993345649440622 0.9643978827856838 0  0.2548390693531445 0.917543736811073 0  0.4376701674058487 0.06983678836603174 0  0.6249880952696493 0.07804203554412367 0  0.8891633930840495 0.7080603551933189 0  0 0.65625 0  0.8857454763750297 0.2783067670731572 0  1 0.65625 0  0 0.59375 0  0.9147359581367025 0.7498372322849914 0  0.34375 1 0  0.08128436453222096 0.3306040779845135 0  0.8370204413255111 0.08803482611562097 0  0.4399236117509409 0.9264634199869409 0  0.3763243110806382 0.08093997073896844 0  1 0.78125 0  0.3058827875685617 0.8943637152968825 0  0.891027260700638 0.1971556622156984 0  0.1814462944911871 0.9630031969500565 0  0.1812917788273262 0.1067749496803429 0  0.2291605611046911 0.1598957180171764 0  0.630525566101238 0.03837025329843378 0  0.03363261960646192 0.92260900189631 0  0.2960793559902691 0.1260912307633523 0  0.03663553287191564 0.8179172045954961 0  0.02996523389584273 0.8560987956667739 0  0.09880166525369549 0.8450583124835681 0  0.6923212173088138 0.150169004406393 0  0.502
[...]
<PointData  Vectors="u"> 
<DataArray  type="Float64"  Name="u"  NumberOfComponents="3" format="ascii">0.0000000000000000e+00 0.0000000000000000e+00 0.0000000000000000e+00  0.0000000000000000e+00 0.0000000000000000e+00 0.0000000000000000e+00  0.0000000000000000e+00 0.0000000000000000e+00 0.0000000000000000e+00  0.0000000000000000e+00 0.0000000000000000e+00 0.0000000000000000e+00  -5.1842420594089569e-02 -1.0079936550578357e-02 0.0000000000000000e+00  -5.0897839266796474e-02 -2.4350186461777482e-05 0.0000000000000000e+00  -5.1784752744530593e-02 1.0047994850465404e-02 0.0000000000000000e+00  -5.3937732131855667e-02 2.1339697372402516e-02 0.0000000000000000e+00  -5.6722202131329606e-02 3.4274635545013893e-02 0.0000000000000000e+00  -5.9628155348519611e-02 4.7596560193907657e-02 0.0000000000000000e+00  -6.2315781017864655e-02 5.7956210727199420e-02 0.0000000000000000e+00  -6.3571623334892052e-02 6.3068334724185673e-02 0.0000000000000000e+00  -6.1259402656883531e-02 6.3225277745953851e-02 0.0000000000000000e+00  -5.3401870892038586e-02 6.1008996567832582e-02 0.0000000000000000e+00  -4.1120590331904544e-02 5.8157605295366392e-02 0.0000000000000000e+00  -2.7721433665204773e-02 5.5286490789183809e-02 0.0000000000000000e+00  -1.5560248401003129e-02 5.2696865517309385e-02 0.0000000000000000e+00  -5.0220605879590331e-03 5.1212434266544662e-02 0.0000000000000000e+00  5.0507830200457694e-03 5.1183971431635118e-02 0.0000000000000000e+00  1.5559581518721732e-02 5.2698348813301259e-02 0.0000000000000000e+00  2.7716820125917235e-02 5.5269165725367178e-02 0.0000000000000000e+00  4.1035951432115095e-02 5.8220992530699713e-02 0.0000000000000000e+00  5.3422546611980891e-02 6.0998450216011690e-02 0.0000000000000000e+00  6.1289735977857335e-02 6.3159110905835508e-02 0.0000000000000000e+00  6.3558738517236618e-02 6.3031292249085075e-02 0.0000000000000000e+00  6.2186929650733670e-02 5.7987891631744899e-02 0.0000000000000000e+00  5.9655699769123750e-02 4.7701771209749104e-02 0.0000000000000000e+00  5.6775846215407454e-02 3.4337016539711752e-02 0.0000000000000000e+00  5.3918288879406272e-02 2.1286782229763632e-02 0.0000000000000000e+00  5.1811336102472398e-02 1.0109620350820435e-02 0.0000000000000000e+00  5.0926980520513233e-02 -8.6949898563425663e-05 0.0000000000000000e+00  5.1717243739553651e-02 -1.0103003271942034e-02 0.0000000000000000e+00  5.3920651828284830e-02 -2.1356536391881148e-02 0.0000000000000000e+00  5.6703987137779847e-02 -3.4311287277141042e-02 0.0000000000000000e+00  5.9604368162005504e-02 -4.7588482971221681e-02 0.0000000000000000e+00  6.2322233301536335e-02 -5.7901863903886311e-02 0.0000000000000000e+00  6.3290418195488043e-02 -6.2828804587063108e-02 0.0000000000000000e+00  6.1009589765491687e-02 -6.3195424810265868e-02 0.0000000000000000e+00  5.3475843659487134e-02 -6.1005947964848872e-02 0.0000000000000000e+00  4.1068239044636017e-02 -5.8139206144254045e-02 0.0000000000000000e+00  2.7744983535289112e-02 -5.5308936246581800e-02 0.0000000000000000e+00  1.5570751204331715e-02 -5.2762173766702704e-02 0.0000000000000000e+00  5.0219880024006021e-03 -5.1203825595120586e-02 0.0000000000000000e+00  -5.0427576782542845e-03 -5.1164643211075313e-02 0.0000000000000000e+00  -1.5554962491270417e-02 -5.2689436431336958e-02 0.0000000000000000e+00  -2.7655792234939167e-02 -5.5305180139590279e-02 0.0000000000000000e+00  -4.1078055371472411e-02 -5.8191394342175524e-02 0.0000000000000000e+00  -5.3346808104930567e-02 -6.0850012682815216e-02 0.0000000000000000e+00  -6.1026180505424361e-02 -6.3085337064573491e-02 0.0000000000000000e+00  -6.3588529228149712e-02 -6.2853897803933897e-02 0.0000000000000000e+00  -6.2122837347604827e-02 -5.7834989036602835e-02 0.0000000000000000e+00  -5.9546674977196255e-02 -4.7593942323794103e-02 0.0000000000000000e+00  -5.6686835555764814e-02 -3.4313101555345983e-02 0.0000000000000000e+00  -5.3939704760799199e-02 -2.1345819167010397e-02 0.0000000000000000e+00  0.0000000000000000e+00 0.0000000000000000e+00 0.0000000000000000e+00  0.0000000000000000e+00 0.0000000000000000e+00 0.0000000000000000e+00  0.0000000000000000e+00 0.0000000000000000e+00 0.0000000000000000e+00  0.0000000000000000e+00 0.0000000000000000e+00 0.0000000000000000e+00  0.0000000000000000e+00 0.0000000000000000e+00 0.0000000000000000e+00  0.0000000000000000e+00 0.0000000000000000e+00 0.0000000000000000e+00  0.0000000000000000e+00 0.0000000000000000e+00 0.0000000000000000e+00  0.0000000000000000e+00 0.0000000000000000e+00 0.0000000000000000e+00  0.0000000000000000e+00 0.0000000000000000e+00 0.0000000000000000e+00  0.0000000000000000e+00 0.0000000000000000e+00 0.0000000000000000e+00  0.0000000000000000e+00 0.0000000000000000e+00 0.0000000000000000e+00  0.0000000000000000e+00 0.0000000000000000e+00 0.0000000000000000e+00  0.0000000000000000e+00 0.0000000000000000e+00 0.0000000000000000e+00  0.0000000000000000e+00 0.0000000000000000e+00 0.0000000000000000e+00  0.0000000000000000e+00 0.0000000000000000e+00 0.0000000000000000e+00  0.0000000000000000e+00 0.0000000000000000e+00 0.0000000000000000e+00  0.0000000000000000e+00 0.0000000000000000e+00 0.0000000000000000e+00  0.0000000000000000e+00 0.0000000000000000e+00 0.0000000000000000e+00  0.0000000000000000e+00 0.0000000000000000e+00 0.0000000000000000e+00  0.0000000000000000e+00 0.0000000000000000e+00 0.0000000000000000e+00  0.0000000000000000e+00 0.0000000000000000e+00 0.0000000000000000e+00  0.0000000000000000e+00 0.0000000000000000e+00 0.0000000000000000e+00  0.0000000000000000e+00 0.0000000000000000e+00 0.0000000000000000e+00  0.0000000000000000e+00 0.0000000000000000e+00 0.0000000000000000e+00  0.0000000000000000e+00 0.0000000000000000e+00 0.0000000000000000e+00  0.0000000000000000e+00 0.0000000000000000e+00 0.0000000000000000e+00  0.0000000000000000e+00 0.0000000000000000e+00 0.0000000000000000e+00  0.0000000000000000e+00 0.0000000000000000e+00 0.0000000000000000e+00  3.0235283272742542e-02 2.9614220810570094e-02 0.0000000000000000e+00  -3.0265037405064213e-02 -2.9738904605426282e-02 0.0000000000000000e+00  -3.0204874166744822e-02 2.9580805550609084e-02 0.0000000000000000e+00  2.8438083682045697e-02 -2.8500146528774955e-02 0.0000000000000000e+00  -2.1949341602093688e-02 2.3448211333347700e-02 0.0000000000000000e+00  2.8997548536133705e-02 2.9651068784161454e-02 0.0000000000000000e+00  -2.9018215131078995e-02 -2.9528195113684989e-02 0.0000000000000000e+00  3.0696396288435734e-02 -2.9575516898305603e-02 0.0000000000000000e+00  2.9931512911195654e-02 -2.9658625518180076e-02 0.0000000000000000e+00  1.2100497821064487e-02 1.2119877260148780e-02 0.0000000000000000e+00  0.0000000000000000e+00 0.0000000000000000e+00 0.0000000000000000e+00  0.0000000000000000e+00 0.0000000000000000e+00 0.0000000000000000e+00  0.0000000000000000e+00 0.0000000000000000e+00 0.0000000000000000e+00  0.0000000000000000e+00 0.0000000000000000e+00 0.0000000000000000e+00  -1.2164172317697146e-02 -1.2089897166299175e-02 0.0000000000000000e+00  -2.6489890981573293e-02 2.9709532376088567e-02 0.0000000000000000e+00  2.6559211069309384e-02 2.9752471187089412e-02 0.0000000000000000e+00  -2.9445174847489493e-02 -2.9814006594326065e-02 0.0000000000000000e+00  0.0000000000000000e+00 0.0000000000000000e+00 0.0000000000000000e+00  0.0000000000000000e+00 0.0000000000000000e+00 0.0000000000000000e+00  2.6628693446690891e-02 2.1252418767507584e-02 0.0000000000000000e+00  0.0000000000000000e+00 0.0000000000000000e+00 0.0000000000000000e+00  0.0000000000000000e+00 0.0000000000000000e+00 0.0000000000000000e+00  0.0000000000000000e+00 0.0000000000000000e+00 0.0000000000000000e+00  -2.8881850339115375e-02 2.5852426321782782e-02 0.0000000000000000e+00  0.0000000000000000e+00 0.0000000000000000e+00 0.0000000000000000e+00  0.0000000000000000e+00 0.0000000000000000e+00 0.0000000000000000e+00  -1.3802113832492304e-02 1.3797961078292630e-02 0.0000000000000000e+00  -2.8166329265139012e-02 -2.3759176719125620e-02 0.0000000000000000e+00  0.0000000000000000e+00 0.0000000000000000e+00 0.0000000000000000e+00  1.3024709801604009e-02 -1.3040864609425514e-02 0.0000000000000000e+00  1.6980121468411175e-02 -1.8907496178888563e-02 0.0000000000000000e+00  -4.1946467191567763e-02 4.1946718698356415e-02 0.0000000000000000e+00  2.3048295165817578e-02 -2.8148110242719810e-02 0.0000000000000000e+00  -1.9354851715659586e-02 -2.8493135659412361e-02 0.0000000000000000e+00  -1.9443682119708556e-02 -2.1150111345155546e-02 0.0000000000000000e+00  1.9516901136541587e-02 2.0977451969066196e-02 0.0000000000000000e+00  0.0000000000000000e+00 0.0000000000000000e+00 0.0000000000000000e+00  2.6006509734138202e-02 -1.6103415892473969e-02 0.0000000000000000e+00  -2.6818818434605939e-02 1.7790289772751225e-02 0.0000000000000000e+00  4.4808180278353968e-02 -4.4917045764722198e-02 0.0000000000000000e+00  -1.6525846950904071e-02 2.5575685324947885e-02 0.0000000000000000e+00  0.0000000000000000e+00 0.0000000000000000e+00 0.0000000000000000e+00  1.6010677610128695e-02 2.5847496892475848e-02 0.0000000000000000e+00  3.9717217157298604e-02 4.0042052492220148e-02 0.0000000000000000e+00  -2.3236881390653861e-02 2.1940040574136503e-02 0.0000000000000000e+00  1.8821275703661666e-02 -1.6904553912466449e-02 0.0000000000000000e+00  0.0000000000000000e+00 0.0000000000000000e+00 0.0000000000000000e+00  0.0000000000000000e+00 0.0000000000000000e+00 0.0000000000000000e+00  0.0000000000000000e+00 0.0000000000000000e+00 0.0000000000000000e+00  0.0000000000000000e+00 0.0000000000000000e+00 0.0000000000000000e+00  2.1338098430512605e-02 1.9845012689554749e-02 0.0000000000000000e+00  -2.7757495348197183e-02 -1.5650383985026006e-02 0.0000000000000000e+00  -4.1713851069585743e-02 4.1886854279820786e-02 0.0000000000000000e+00  -1.9582682103880169e-02 -1.7769604137353748e-02 0.0000000000000000e+00  0.0000000000000000e+00 0.0000000000000000e+00 0.0000000000000000e+00  0.0000000000000000e+00 0.0000000000000000e+00 0.0000000000000000e+00  0.0000000000000000e+00 0.0000000000000000e+00 0.0000000000000000e+00  0.0000000000000000e+00 0.0000000000000000e+00 0.0000000000000000e+00  0.0000000000000000e+00 0.0000000000000000e+00 0.0000000000000000e+00  0.0000000000000000e+00 0.0000000000000000e+00 0.0000000000000000e+00  0.0000000000000000e+00 0.0000000000000000e+00 0.0000000000000000e+00  0.0000000000000000e+00 0.0000000000000000e+00 0.0000000000000000e+00  0.0000000000000000e+00 0.0000000000000000e+00 0.0000000000000000e+00  0.0000000000000000e+00 0.0000000000000000e+00 0.0000000000000000e+00  0.0000000000000000e+00 0.0000000000000000e+00 0.0000000000000000e+00  0.0000000000000000e+00 0.0000000000000000e+00 0.0000000000000000e+00  0.0000000000000000e+00 0.0000000000000000e+00 0.0000000000000000e+00  0.0000000000000000e+00 0.0000000000000000e+00 0.0000000000000000e+00  -4.6291638281486872e-02 -4.6296794570035306e-02 0.0000000000000000e+00  4.3522812007098330e-02 4.3542647773332152e-02 0.0000000000000000e+00  -1.7092624898805302e-02 1.5168256921311752e-02 0.0000000000000000e+00  4.4617700069836501e-02 -4.4270197650799675e-02 0.0000000000000000e+00  1.5239319308988626e-02 -2.6259626674722467e-02 0.0000000000000000e+00  -2.6135011268615234e-02 8.6756982920109926e-03 0.0000000000000000e+00  2.6171432742237016e-02 -8.5937225637133970e-03 0.0000000000000000e+00  2.4526731996768976e-02 8.9690082814741449e-03 0.0000000000000000e+00  -8.6283034830318111e-03 2.3834737833108254e-02 0.0000000000000000e+00  -1.1852181516290730e-02 -2.7120145188008343e-02 0.0000000000000000e+00  9.3016744532714093e-03 2.4596497730159764e-02 0.0000000000000000e+00  1.9965537283046283e-02 -1.6847512555085285e-02 0.0000000000000000e+00  -2.3938117353741926e-02 -2.9009288604423546e-03 0.0000000000000000e+00  2.3941150459605303e-02 2.8609184101323782e-03 0.0000000000000000e+00  4.0852994315584111e-02 3.7351078185566745e-02 0.0000000000000000e+00  1.7784597332965873e-02 1.6137156119673649e-02 0.0000000000000000e+00  -2.3842071809068565e-02 -8.0596046757980856e-03 0.0000000000000000e+00  -3.4441335646242598e-02 -4.0382863720313113e-02 0.0000000000000000e+00  -1.6998518580688189e-02 -1.9178372454653668e-02 0.0000000000000000e+00  2.1830905958020379e-02 1.2972780921456583e-02 0.0000000000000000e+00  -1.4196747034487651e-02 1.6111498152801974e-02 0.0000000000000000e+00  8.3399603551899387e-03 -2.4196753415320633e-02 0.0000000000000000e+00  -3.6985094226344309e-03 2.4045392458370934e-02 0.0000000000000000e+00  2.6414628877917067e-03 2.2491800606040391e-02 0.0000000000000000e+00  3.0188651895557339e-03 -2.3167746317329478e-02 0.0000000000000000e+00  -2.6594281706404026e-03 -2.2502454300338086e-02 0.0000000000000000e+00  -4.2841726317229885e-02 -3.9726454435751526e-02 0.0000000000000000e+00  -4.4859268980723323e-02 -4.4591183803113894e-02 0.0000000000000000e+00  1.3675740798648028e-02 -1.4303858182271079e-02 0.0000000000000000e+00  -4.5221208062215114e-02 -4.7083891218861744e-02 0.0000000000000000e+00  4.5137839531518509e-02 -4.6484349496505102e-02 0.0000000000000000e+00  1.3576843753958212e-02 1.4164174888049077e-02 0.0000000000000000e+00  -1.7291532162379518e-02 -1.7122545733248128e-02 0.0000000000000000e+00  -2.4710211123003468e-02 2.5809044114658191e-03 0.0000000000000000e+00  2.4733630644612342e-02 -2.5456508035986698e-03 0.0000000000000000e+00  -1.9023084014201240e-02 -1.7640063948462875e-02 0.0000000000000000e+00  -4.3314717966324627e-02 4.1178408519993215e-02 0.0000000000000000e+00  3.9439209384480138e-02 -3.0196273726717512e-02 0.0000000000000000e+00  -1.3708038542494860e-02 -1.3072847550597767e-02 0.0000000000000000e+00  2.9463858819714542e-02 -3.0554198401146464e-02 0.0000000000000000e+00  3.1167030822781862e-02 -3.0053045258995797e-02 0.0000000000000000e+00  1.3921031461988328e-02 -1.3323237178622140e-02 0.0000000000000000e+00  -3.2070635098655889e-02 -3.2889994386454166e-02 0.0000000000000000e+00  -2.6232259103616512e-02 2.7442317826342520e-02 0.0000000000000000e+00  -1.5462491562913669e-02 1.5704053180463310e-02 0.0000000000000000e+00  -1.4663857192484121e-02 -1.6243476662568639e-02 0.0000000000000000e+00  1.6073752674956816e-02 1.5888204463399891e-02 0.0000000000000000e+00  3.8122288104885438e-02 -4.2838684515518283e-02 0.0000000000000000e+00  -3.5673017666729687e-02 -3.5048902141626176e-02 0.0000000000000000e+00  -1.1424689608832745e-02 1.3292250044042751e-02 0.0000000000000000e+00  1.1416136890887930e-02 1.3284680807172784e-02 0.0000000000000000e+00  -1.5116716865041872e-02 1.5099981706635936e-02 0.0000000000000000e+00  -9.3608450582554712e-03 7.9106173173934102e-03 0.0000000000000000e+00  9.3148313828023289e-03 1.0937535007090859e-02 0.0000000000000000e+00  3.1071748479093917e-02 3.1989338433705473e-02 0.0000000000000000e+00  -1.6158873730141292e-02 1.3052127620021106e-02 0.0000000000000000e+00  4.5006471691266765e-02 -4.0186640257179912e-02 0.0000000000000000e+00  -6.9874054139569403e-03 8.3540865286387822e-03 0.0000000000000000e+00  5.1524719678454206e-02 5.1714274081003347e-02 0.0000000000000000e+00  1.0440612733707810e-02 -1.2134469191947429e-02 0.0000000000000000e+00  8.3343457137960639e-03 -7.0112244777525605e-03 0.0000000000000000e+00  1.0399174458956453e-02 8.7895827788704584e-03 0.0000000000000000e+00  -4.2463554808975006e-02 3.1814648905571438e-02 0.0000000000000000e+00  -5.1696759876059539e-02 5.1959776241952409e-02 0.0000000000000000e+00  8.8300066964969396e-03 7.4560234517425661e-03 0.0000000000000000e+00  6.8274281883708224e-03 8.0949856420002419e-03 0.0000000000000000e+00  -9.3920585063009977e-03 -8.0217099669059200e-03 0.0000000000000000e+00  -6.7519248461039953e-03 -8.0603780193941946e-03 0.0000000000000000e+00  2.0561671746824470e-02 2.0672389102666004e-02 0.0000000000000000e+00  -5.1981524710127281e-03 -5.1889271090639405e-03 0.0000000000000000e+00  0.0000000000000000e+00 0.0000000000000000e+00 0.0000000000000000e+00  0.0000000000000000e+00 0.0000000000000000e+00 0.0000000000000000e+00  -6.1421115308809351e-03 6.1334652344935603e-03 0.0000000000000000e+00  5.6421591971025651e-03 -5.6045544030024564e-03 0.0000000000000000e+00  -3.8752440414326753e-02 -2.7286991580809716e-02 0.0000000000000000e+00  3.6486110745965236e-02 -3.6960781243229421e-02 0.0000000000000000e+00  4.2595190328187371e-02 4.1699628146635165e-02 0.0000000000000000e+00  2.4939319847287332e-02 2.3481662538525305e-02 0.0000000000000000e+00  0.0000000000000000e+00 0.0000000000000000e+00 0.0000000000000000e+00  1.3872124424824590e-02 -1.5016346670078316e-02 0.0000000000000000e+00  1.9774655362398624e-02 -2.0745343170146851e-02 0.0000000000000000e+00  -2.9606580325611295e-02 3.9239039028330237e-02 0.0000000000000000e+00  -4.1283926251014666e-02 4.4389234371676169e-02 0.0000000000000000e+00  2.8828894297810465e-02 3.8511992255843147e-02 0.0000000000000000e+00  4.0933983620564662e-02 4.4570989291067710e-02 0.0000000000000000e+00  -3.4529937211935646e-02 1.6899132852118640e-02 0.0000000000000000e+00  -4.0337035130309153e-02 4.0240635956710687e-02 0.0000000000000000e+00  0.0000000000000000e+00 0.0000000000000000e+00 0.0000000000000000e+00  4.3042856185753181e-02 3.4006530525835375e-02 0.0000000000000000e+00  -8.9060253680207924e-03 -1.5576467233194538e-02 0.0000000000000000e+00  4.0236203033490896e-02 4.0046644049097406e-02 0.0000000000000000e+00  -2.9163725497700771e-02 2.8988803000779648e-02 0.0000000000000000e+00  -1.2161970988324756e-02 -1.0654853699648937e-02 0.0000000000000000e+00  -1.8702575635392821e-02 -1.3521047265423972e-02 0.0000000000000000e+00  2.7249542378688159e-02 -4.2592541930775017e-02 0.0000000000000000e+00  2.8306872902619171e-02 2.8113705247522144e-02 0.0000000000000000e+00  5.5915002032319973e-03 5.5662829309638629e-03 0.0000000000000000e+00  -8.4420194273654124e-03 -3.1526219684102685e-02 0.0000000000000000e+00  1.6809396961059379e-02 -1.5422686967429619e-02 0.0000000000000000e+00  3.9908320131788223e-02 2.1231782290146151e-02 0.0000000000000000e+00  -1.0433287859861334e-02 1.1962020036120010e-02 0.0000000000000000e+00  -2.1847434943416132e-02 2.1898459673699223e-02 0.0000000000000000e+00  -3.0684075655783499e-02 3.1273038536261968e-02 0.0000000000000000e+00  -9.6942549528691493e-03 -1.1437948664860188e-02 0.0000000000000000e+00  0.0000000000000000e+00 0.0000000000000000e+00 0.0000000000000000e+00  -1.2604755271390820e-02 1.1070407312711871e-02 0.0000000000000000e+00  1.6364454863190288e-04 -3.4452213559446873e-02 0.0000000000000000e+00  -1.8896620622496420e-07 3.5155158044050401e-02 0.0000000000000000e+00  -1.9288164390895115e-02 -1.9644616334759200e-02 0.0000000000000000e+00  -5.3106374085818704e-02 5.1889908301693766e-02 0.0000000000000000e+00  1.8062662688560101e-02 1.9672557537708000e-02 0.0000000000000000e+00  0.0000000000000000e+00 0.0000000000000000e+00 0.0000000000000000e+00  -1.1374930393621351e-02 -9.6488879505667972e-03 0.0000000000000000e+00  3.5367266419380185e-02 -1.6656814664202418e-02 0.0000000000000000e+00  1.7356398053142989e-02 -8.4826301510623585e-03 0.0000000000000000e+00  1.7086764380252587e-02 -3.7881333239025594e-02 0.0000000000000000e+00  0.0000000000000000e+00 0.0000000000000000e+00 0.0000000000000000e+00  1.3939333684517535e-02 1.2391641690271972e-02 0.0000000000000000e+00  0.0000000000000000e+00 0.0000000000000000e+00 0.0000000000000000e+00  -1.6802543956070542e-02 9.0288567019271380e-03 0.0000000000000000e+00  5.3112747621843474e-02 5.2199542548675572e-02 0.0000000000000000e+00  1.1094458374093202e-02 -1.3921812456534104e-02 0.0000000000000000e+00  2.7278092716118942e-02 -2.9341510536991550e-02 0.0000000000000000e+00  8.2568721347290094e-03 3.4213693579137443e-02 0.0000000000000000e+00  -1.7580997783312249e-02 3.5545918248065238e-02 0.0000000000000000e+00  -4.2755552055920160e-02 -3.5413408694033637e-02 0.0000000000000000e+00  0.0000000000000000e+00 0.0000000000000000e+00 0.0000000000000000e+00  -4.2650084383040653e-02 3.7121615656829587e-02 0.0000000000000000e+00  0.0000000000000000e+00 0.0000000000000000e+00 0.0000000000000000e+00  0.0000000000000000e+00 0.0000000000000000e+00 0.0000000000000000e+00  -2.9926980904976808e-02 