<?xml version="1.0"?>
<VTKFile type="UnstructuredGrid"  version="0.1"  >
<UnstructuredGrid>
<Piece  NumberOfPoints="1109" NumberOfCells="1972">
<Points>
<DataArray  type="Float64"  NumberOfComponents="3"  format="ascii">0 1 0  0 0 0  1 0 0  1 1 0  0.8968458805257912 0.5501332934257217 0  0.9 0.5 0  0.8968458805257911 0.4498667065742781 0  0.8874332644514524 0.4005240451340579 0  0.8719105943553006 0.3527501789261288 0  0.8505226720175453 0.3072985303593135 0  0.823606797749979 0.2648858990830106 0  0.7915874509685645 0.2261811576285244 0  0.7549695958994758 0.1917947028896841 0  0.7143307179915988 0.162268829799194 0  0.6703117166260287 0.138069179013592 0  0.6236067977499788 0.1195773934819385 0  0.5749525258342897 0.1070850997085245 0  0.5251162078117251 0.1007893086286913 0  0.4748837921882747 0.1007893086286913 0  0.4250474741657101 0.1070850997085245 0  0.376393202250021 0.1195773934819386 0  0.3296882833739712 0.1380691790135921 0  0.2856692820084015 0.1622688297991939 0  0.2450304041005242 0.1917947028896843 0  0.2084125490314353 0.2261811576285246 0  0.1763932022500209 0.2648858990830109 0  0.1494773279824546 0.3072985303593139 0  0.1280894056446994 0.3527501789261288 0  0.1125667355485475 0.4005240451340581 0  0.1031541194742088 0.4498667065742783 0  0.09999999999999998 0.5 0  0.1031541194742089 0.5501332934257218 0  0.1125667355485476 0.5994759548659421 0  0.1280894056446995 0.6472498210738713 0  0.1494773279824546 0.6927014696406861 0  0.176393202250021 0.7351141009169893 0  0.2084125490314355 0.7738188423714756 0  0.2450304041005241 0.8082052971103157 0  0.2856692820084012 0.837731170200806 0  0.3296882833739709 0.8619308209864078 0  0.3763932022500212 0.8804226065180615 0  0.4250474741657101 0.8929149002914756 0  0.4748837921882746 0.8992106913713087 0  0.5251162078117254 0.8992106913713087 0  0.5749525258342899 0.8929149002914755 0  0.623606797749979 0.8804226065180614 0  0.6703117166260291 0.8619308209864078 0  0.7143307179915986 0.8377311702008061 0  0.754969595899476 0.8082052971103157 0  0.7915874509685646 0.7738188423714755 0  0.823606797749979 0.7351141009169893 0  0.8505226720175454 0.6927014696406861 0  0.8719105943553006 0.6472498210738712 0  0.8874332644514524 0.599475954865942 0  0.5 1 0  0 0.5 0  1 0.5 0  0.5 0 0  0.75 1 0  0.25 1 0  0 0.75 0  0 0.25 0  1 0.25 0  1 0.75 0  0.75 0 0  0.25 0 0  0.625 1 0  0.375 1 0  0 0.625 0  0 0.375 0  1 0.375 0  1 0.625 0  0.625 0 0  0.375 0 0  0.125 0 0  0.875 0 0  1 0.125 0  0 0.875 0  0.125 1 0  0.875 1 0  0 0.125 0  1 0.875 0  0.1443946775413214 0.1213187937376868 0  0.8556053224586788 0.8786812062623132 0  0.8556053224586785 0.1213187937376867 0  0.1275360334547992 0.8724639665452008 0  0.9261623581710797 0.1875 0  0.09234641934319709 0.2082689144241477 0  0.9076535806568029 0.7917310855758523 0  0.08970099689351971 0.7603836651344988 0  0.2182130526099624 0.9079579669686324 0  0.07086411995581518 0.07086411995581518 0  1 0.0625 0  0.9375 0 0  0.0625 1 0  0 0.9375 0  0.9291358800441849 0.9291358800441849 0  0.7304772975931939 0.08076335202639119 0  0.2695227024068061 0.08076335202639115 0  0.7697819974699807 0.9105968468121929 0  1 0.6875 0  1 0.3125 0  0.06784168511078095 0.2966417331842567 0  0 0.6875 0  0.1875 0 0  0.8125 0 0  0.9212459744619301 0.2681742056774029 0  0.3125 1 0  0.6875 1 0  0.922097136530977 0.07790286346902295 0  0.9261304603587264 0.7150772115644075 0  0 0.8125 0  0.07432186328509671 0.9256781367149033 0  0.06317182982585627 0.84375 0  0.8548473925302104 0.1928285354262928 0  0.2914274450692525 0.9272721924131209 0  0.6710199663399635 0.9319471281137308 0  0.9226595291420543 0.8597667107019437 0  0.0773404708579461 0.1402332892980563 0  0.8125 1 0  0.06054886616517211 0.65625 0  0.9362657027224049 0.3336129027547622 0  0.1841195715992005 0.8363784907223111 0  0.6625377124131507 0.06023416665880475 0  0.3125 0 0  0.34375 0.06016090820395464 0  0.2153846372786545 0.1270381302276244 0  0.8024953780019808 0.07187189600048093 0  0.1546395545758083 0.9367961467266345 0  0.5625 1 0  0.4375 0 0  0.4375 1 0  0.5625 0 0  0.1844766880788185 0.06724298999790632 0  0.9369725282473387 0.6419809811402504 0  0.791523351719164 0.1369023590147849 0  0.8285961364903059 0.9374018659319692 0  1 0.4375 0  0 0.4375 0  1 0.5625 0  0 0.5625 0  0 0.3125 0  1 0.8125 0  0.0625 0 0  0 0.0625 0  0 0.1875 0  1 0.1875 0  1 0.9375 0  0.9375 1 0  0.6875 0 0  0.1875 1 0  0.8126465958421825 0.8329348088176629 0  0.1550798535647612 0.1867680086445373 0  0.8631981559835366 0.06032295929500282 0  0.1449089435554358 0.7884432695884597 0  0.3538206140027237 0.9399564250283491 0  0.944997661525766 0.4151121561005554 0  0.05500233847423393 0.5848878438994446 0  0.0520912947951912 0.40625 0  0.59375 0.05063263303723638 0  0.6113142584645842 0.9411585052804305 0  0.402402637527157 0.05243074290023167 0  0.05237021982595785 0.7146869946988353 0  0.9514280734197595 0.53125 0  0.04857192658024048 0.46875 0  0.1138995451272664 0.2618291859344329 0  0.1276043399716366 0.06698080255494471 0  0.9496852823490703 0.5873315358652272 0  0.7164226875694513 0.8936714072472519 0  0.728445758907293 0.9483406189827143 0  0.05037626111865807 0.3500677784994627 0  0.9425695009311538 0.1320174568820216 0  0.4108317852857326 0.9488345682840208 0  0.5398628985995173 0.04893133705064829 0  0.46875 0.04573672429098317 0  0.4652931800096448 0.9529811055869081 0  0.53125 0.9542632757090168 0  0.8785971272885281 0.7441734326495726 0  0.8518416617605847 0.7931754903661554 0  0.04183404050302509 0.78125 0  0.7612395846848441 0.8595654412716175 0  0.2310588911243982 0.8579303197600836 0  0.04148050284378633 0.21875 0  0.9494864361787021 0.7612608042848362 0  0.9500000000000001 0.4721339993173143 0  0.04999999999999998 0.5278660006826856 0  0.8781553628189985 0.9246252444972441 0  0.8731991046476956 0.2435858407989878 0  0.09811738497342513 0.6912987895906199 0  0.78125 0.9600244726998853 0  0.09951704281279977 0.8094116423849811 0  0.1723930843372325 0.8914409560171174 0  0.21875 0.9592823984315264 0  0.8808053857873319 0.8333253975559158 0  0.8963977713581862 0.1485308906960134 0  0.9538351164349618 0.2296733193971382 0  0.9502525126806526 0.8180081280125184 0  0.2312490385075739 0.04727387874777968 0  0.2715914187620846 0.8835921407480765 0  0.8075381809024645 0.880775593205643 0  0.71875 0.03518728418751645 0  0.28125 0.03518728418751642 0  0.7646042202168328 0.04444036111707996 0  0.9023329991729737 0.03666350737326187 0  0.03401531498238862 0.15625 0  0.1188530488980251 0.1590855287670435 0  0.9585274478449393 0.2940602659505009 0  0.122777080947294 0.7293581095092172 0  0.9670375667902916 0.09375 0  0.2005134857209875 0.1810792546569654 0  0.04567406045797464 0.8878541658538743 0  0.09375 0.966869578205468 0  0.1562008719445321 0.03232788333739163 0  0.8953932105853648 0.3139420780646932 0  0.7990572522972532 0.1815363722387022 0  0.0968875242781685 0.03463409819727443 0  0.03223722036876893 0.09375 0  0.9004223587754672 0.9633108159792649 0  0.9677627796312311 0.90625 0  0.1015654613822437 0.1029847255361322 0  0.9612688796250578 0.9612688796250578 0  0 0.03125 0  0.03125 0 0  0.04144949962501476 0.9585505003749852 0  0.9558898336496962 0.04411016635030385 0  0.9068917513393455 0.6748714165270275 0  0.1368346895292699 0.830580202512584 0  0.1325215314767946 0.2232188145997174 0  0.07053058491102715 0.2523250971165124 0  0.28125 1 0  0.2618257196382527 0.9585732837283344 0  0.08628220552312613 0.8784418410901162 0  0.6885162251696433 0.09694521726220126 0  0.7451861497985837 0.1260293295250874 0  0.313422114933215 0.09491014745286984 0  0.2604190570795071 0.1249189143540631 0  0.9242490330121279 0.3761177923443456 0  0.8294827367589617 0.1534479284350518 0  0 0.28125 0  0.1085704015556412 0.3026527142683792 0  0.6454377779583714 0.9642341400769985 0  0.1735682150935896 0.1501527832362767 0  0.9118639212665761 0.2270478094042325 0  0.9675029085737417 0.7231519194735394 0  0.9540854621793986 0.6818714685662951 0  0.3411855214203015 0.9011195850022233 0  0.2203778463487443 0.08657146517086198 0  0.04103470738435357 0.04103470738435357 0  0.5692124642834736 0.9350661676969988 0  0.1143804055696223 0.9319617439078584 0  0.08871656954519293 0.3663659127109965 0  0.9630811790855398 0.168250321868886 0  0.8941478109554366 0.1077225817667272 0  0.7685953432959879 0.09339992494635127 0  0.9613334331586147 0.8673647296762501 0  0.84375 0 0  0.8276419188889859 0.03874003995670209 0  0.4987074584280061 0.9312004428379874 0  0.4999999999999999 0.07012294039149713 0  0.906353444207591 0.8962759602721756 0  0.8317000502825128 0.2255938539236174 0  0.060982293117454 0.1847248153131282 0  0.84375 1 0  0.8601163332513452 0.9625346208269469 0  0.07696867235812772 0.6190771663714262 0  0.03866375363197156 0.624370156890833 0  0.386395970129115 0.9182613855572013 0  0.59375 1 0  0.03763634871355165 0.2725691404761272 0  1 0.34375 0  0.9619513789393942 0.3638256452123659 0  0.1705891391383945 0.2215719862571997 0  0.2993345649440622 0.9643978827856838 0  0.2548390693531445 0.917543736811073 0  0.4376701674058487 0.06983678836603174 0  0.6249880952696493 0.07804203554412367 0  0.8891633930840495 0.7080603551933189 0  0 0.65625 0  0.8857454763750297 0.2783067670731572 0  1 0.65625 0  0 0.59375 0  0.9147359581367025 0.7498372322849914 0  0.34375 1 0  0.08128436453222096 0.3306040779845135 0  0.8370204413255111 0.08803482611562097 0  0.4399236117509409 0.9264634199869409 0  0.3763243110806382 0.08093997073896844 0  1 0.78125 0  0.3058827875685617 0.8943637152968825 0  0.891027260700638 0.1971556622156984 0  0.1814462944911871 0.9630031969500565 0  0.1812917788273262 0.1067749496803429 0  0.2291605611046911 0.1598957180171764 0  0.630525566101238 0.03837025329843378 0  0.03363261960646192 0.92260900189631 0  0.2960793559902691 0.1260912307633523 0  0.03663553287191564 0.8179172045954961 0  0.02996523389584273 0.8560987956667739 0  0.09880166525369549 0.8450583124835681 0  0.6923212173088138 0.150169004406393 0  0.502
[...]
<PointData  Vectors="u"> 
<DataArray  type="Float64"  Name="u"  NumberOfComponents="3" format="ascii">0.0000000000000000e+00 0.0000000000000000e+00 0.0000000000000000e+00  0.0000000000000000e+00 0.0000000000000000e+00 0.0000000000000000e+00  0.0000000000000000e+00 0.0000000000000000e+00 0.0000000000000000e+00  0.0000000000000000e+00 0.0000000000000000e+00 0.0000000000000000e+00  -4.5080005077698965e-02 -9.0260085238131858e-03 0.0000000000000000e+00  -4.4307482398692789e-02 -3.2471079964340374e-05 0.0000000000000000e+00  -4.5021145999941253e-02 9.0106127908523969e-03 0.0000000000000000e+00  -4.6698818201555962e-02 1.9009836902973851e-02 0.0000000000000000e+00  -4.8810712999868368e-02 3.0184738241447850e-02 0.0000000000000000e+00  -5.1036355213849971e-02 4.1280298933732938e-02 0.0000000000000000e+00  -5.3135714141964899e-02 4.9592516805325823e-02 0.0000000000000000e+00  -5.4081474311769386e-02 5.3665207960902114e-02 0.0000000000000000e+00  -5.2222850179737573e-02 5.3834125283136282e-02 0.0000000000000000e+00  -4.5970591044872361e-02 5.2115414271516607e-02 0.0000000000000000e+00  -3.5949174751289559e-02 4.9900540834242689e-02 0.0000000000000000e+00  -2.4575840731008113e-02 4.7723141536618795e-02 0.0000000000000000e+00  -1.3924619148821772e-02 4.5728713315670404e-02 0.0000000000000000e+00  -4.5144578364130000e-03 4.4575910364728619e-02 0.0000000000000000e+00  4.5303336957801931e-03 4.4547464900865481e-02 0.0000000000000000e+00  1.3912944420252944e-02 4.5729450110247198e-02 0.0000000000000000e+00  2.4568377701198772e-02 4.7707988353835377e-02 0.0000000000000000e+00  3.5876544291287872e-02 4.9959112083574078e-02 0.0000000000000000e+00  4.5983828399225886e-02 5.2103796039998304e-02 0.0000000000000000e+00  5.2253208198761197e-02 5.3779375919896892e-02 0.0000000000000000e+00  5.4069518894686995e-02 5.3637215382075290e-02 0.0000000000000000e+00  5.3025907037357545e-02 4.9637122998855067e-02 0.0000000000000000e+00  5.1063531411046283e-02 4.1372099022933678e-02 0.0000000000000000e+00  4.8860568099476531e-02 3.0254915716495766e-02 0.0000000000000000e+00  4.6677083700654126e-02 1.8959661979276322e-02 0.0000000000000000e+00  4.5047193758189961e-02 9.0629114448682862e-03 0.0000000000000000e+00  4.4335626976802454e-02 -8.4946760589662727e-05 0.0000000000000000e+00  4.4957129117859304e-02 -9.0579265059687539e-03 0.0000000000000000e+00  4.6682058378240167e-02 -1.9013760243061360e-02 0.0000000000000000e+00  4.8794842333661319e-02 -3.0221356995536981e-02 0.0000000000000000e+00  5.1015162675655992e-02 -4.1266833143583322e-02 0.0000000000000000e+00  5.3139527378671760e-02 -4.9549276458727552e-02 0.0000000000000000e+00  5.3852741627272230e-02 -5.3476172993001891e-02 0.0000000000000000e+00  5.2019056126182794e-02 -5.3804574432435331e-02 0.0000000000000000e+00  4.6036525577402072e-02 -5.2113498414654090e-02 0.0000000000000000e+00  3.5911116439170644e-02 -4.9883121170061197e-02 0.0000000000000000e+00  2.4595043656089284e-02 -4.7742302183715807e-02 0.0000000000000000e+00  1.3931653127335625e-02 -4.5793309805824932e-02 0.0000000000000000e+00  4.5031067768581401e-03 -4.4568113342000053e-02 0.0000000000000000e+00  -4.5360056908876406e-03 -4.4530627162476896e-02 0.0000000000000000e+00  -1.3913549647570665e-02 -4.5723002239852123e-02 0.0000000000000000e+00  -2.4506756785521912e-02 -4.7741051050297190e-02 0.0000000000000000e+00  -3.5904946551603832e-02 -4.9928645883170850e-02 0.0000000000000000e+00  -4.5943252795107886e-02 -5.1972582566143503e-02 0.0000000000000000e+00  -5.2036383231302753e-02 -5.3713202608062470e-02 0.0000000000000000e+00  -5.4098169287228055e-02 -5.3492280404121802e-02 0.0000000000000000e+00  -5.2968454999473898e-02 -4.9502392685554002e-02 0.0000000000000000e+00  -5.0965956846336563e-02 -4.1277698535814360e-02 0.0000000000000000e+00  -4.8781159616699717e-02 -3.0210879906672667e-02 0.0000000000000000e+00  -4.6695386124771941e-02 -1.9012595996562152e-02 0.0000000000000000e+00  0.0000000000000000e+00 0.0000000000000000e+00 0.0000000000000000e+00  0.0000000000000000e+00 0.0000000000000000e+00 0.0000000000000000e+00  0.0000000000000000e+00 0.0000000000000000e+00 0.0000000000000000e+00  0.0000000000000000e+00 0.0000000000000000e+00 0.0000000000000000e+00  0.0000000000000000e+00 0.0000000000000000e+00 0.0000000000000000e+00  0.0000000000000000e+00 0.0000000000000000e+00 0.0000000000000000e+00  0.0000000000000000e+00 0.0000000000000000e+00 0.0000000000000000e+00  0.0000000000000000e+00 0.0000000000000000e+00 0.0000000000000000e+00  0.0000000000000000e+00 0.0000000000000000e+00 0.0000000000000000e+00  0.0000000000000000e+00 0.0000000000000000e+00 0.0000000000000000e+00  0.0000000000000000e+00 0.0000000000000000e+00 0.0000000000000000e+00  0.0000000000000000e+00 0.0000000000000000e+00 0.0000000000000000e+00  0.0000000000000000e+00 0.0000000000000000e+00 0.0000000000000000e+00  0.0000000000000000e+00 0.0000000000000000e+00 0.0000000000000000e+00  0.0000000000000000e+00 0.0000000000000000e+00 0.0000000000000000e+00  0.0000000000000000e+00 0.0000000000000000e+00 0.0000000000000000e+00  0.0000000000000000e+00 0.0000000000000000e+00 0.0000000000000000e+00  0.0000000000000000e+00 0.0000000000000000e+00 0.0000000000000000e+00  0.0000000000000000e+00 0.0000000000000000e+00 0.0000000000000000e+00  0.0000000000000000e+00 0.0000000000000000e+00 0.0000000000000000e+00  0.0000000000000000e+00 0.0000000000000000e+00 0.0000000000000000e+00  0.0000000000000000e+00 0.0000000000000000e+00 0.0000000000000000e+00  0.0000000000000000e+00 0.0000000000000000e+00 0.0000000000000000e+00  0.0000000000000000e+00 0.0000000000000000e+00 0.0000000000000000e+00  0.0000000000000000e+00 0.0000000000000000e+00 0.0000000000000000e+00  0.0000000000000000e+00 0.0000000000000000e+00 0.0000000000000000e+00  0.0000000000000000e+00 0.0000000000000000e+00 0.0000000000000000e+00  0.0000000000000000e+00 0.0000000000000000e+00 0.0000000000000000e+00  2.5698042763774274e-02 2.5202731563454383e-02 0.0000000000000000e+00  -2.5719383386188625e-02 -2.5307296059401720e-02 0.0000000000000000e+00  -2.5671109720004675e-02 2.5174363069560300e-02 0.0000000000000000e+00  2.4179105187006146e-02 -2.4232037974031929e-02 0.0000000000000000e+00  -1.8752047302428246e-02 1.9997712190117811e-02 0.0000000000000000e+00  2.4763140272920665e-02 2.5311429398135254e-02 0.0000000000000000e+00  -2.4777202758377571e-02 -2.5206235656086245e-02 0.0000000000000000e+00  2.6231988570680452e-02 -2.5372850472581979e-02 0.0000000000000000e+00  2.5588427548447857e-02 -2.5332427503711938e-02 0.0000000000000000e+00  1.0282370778290360e-02 1.0295975596015968e-02 0.0000000000000000e+00  0.0000000000000000e+00 0.0000000000000000e+00 0.0000000000000000e+00  0.0000000000000000e+00 0.0000000000000000e+00 0.0000000000000000e+00  0.0000000000000000e+00 0.0000000000000000e+00 0.0000000000000000e+00  0.0000000000000000e+00 0.0000000000000000e+00 0.0000000000000000e+00  -1.0336132974694547e-02 -1.0272082725483599e-02 0.0000000000000000e+00  -2.2882754352637067e-02 2.5413308933946627e-02 0.0000000000000000e+00  2.2943766786740476e-02 2.5451107836092602e-02 0.0000000000000000e+00  -2.5223126163359880e-02 -2.5475515543082208e-02 0.0000000000000000e+00  0.0000000000000000e+00 0.0000000000000000e+00 0.0000000000000000e+00  0.0000000000000000e+00 0.0000000000000000e+00 0.0000000000000000e+00  2.2803506724669111e-02 1.8511452968763130e-02 0.0000000000000000e+00  0.0000000000000000e+00 0.0000000000000000e+00 0.0000000000000000e+00  0.0000000000000000e+00 0.0000000000000000e+00 0.0000000000000000e+00  0.0000000000000000e+00 0.0000000000000000e+00 0.0000000000000000e+00  -2.4705815141520544e-02 2.2335166228627159e-02 0.0000000000000000e+00  0.0000000000000000e+00 0.0000000000000000e+00 0.0000000000000000e+00  0.0000000000000000e+00 0.0000000000000000e+00 0.0000000000000000e+00  -1.1729075910781197e-02 1.1726043257116250e-02 0.0000000000000000e+00  -2.4109268381696487e-02 -2.0619924921082285e-02 0.0000000000000000e+00  0.0000000000000000e+00 0.0000000000000000e+00 0.0000000000000000e+00  1.1066620549948654e-02 -1.1080098209790076e-02 0.0000000000000000e+00  1.4508341700673874e-02 -1.6086840066705004e-02 0.0000000000000000e+00  -3.5722265931237569e-02 3.5688007863546825e-02 0.0000000000000000e+00  2.0039236844418263e-02 -2.4098990467725616e-02 0.0000000000000000e+00  -1.7001101235463528e-02 -2.4449772558291376e-02 0.0000000000000000e+00  -1.6585913175364529e-02 -1.7968696621214243e-02 0.0000000000000000e+00  1.6645406382595901e-02 1.7818276045411339e-02 0.0000000000000000e+00  0.0000000000000000e+00 0.0000000000000000e+00 0.0000000000000000e+00  2.2338244268740520e-02 -1.4208159232810264e-02 0.0000000000000000e+00  -2.3015789901392230e-02 1.5647950560916429e-02 0.0000000000000000e+00  3.8107723968118408e-02 -3.8220456535387942e-02 0.0000000000000000e+00  -1.4558788405334618e-02 2.1957577726767871e-02 0.0000000000000000e+00  0.0000000000000000e+00 0.0000000000000000e+00 0.0000000000000000e+00  1.4121233210992797e-02 2.2203242905238330e-02 0.0000000000000000e+00  3.3860020549965585e-02 3.4152734373824191e-02 0.0000000000000000e+00  -1.9848623820555290e-02 1.8746398336580303e-02 0.0000000000000000e+00  1.6012642828799401e-02 -1.4442833553750705e-02 0.0000000000000000e+00  0.0000000000000000e+00 0.0000000000000000e+00 0.0000000000000000e+00  0.0000000000000000e+00 0.0000000000000000e+00 0.0000000000000000e+00  0.0000000000000000e+00 0.0000000000000000e+00 0.0000000000000000e+00  0.0000000000000000e+00 0.0000000000000000e+00 0.0000000000000000e+00  1.8197556970095757e-02 1.6956177525804614e-02 0.0000000000000000e+00  -2.3873866198429336e-02 -1.3859376267655711e-02 0.0000000000000000e+00  -3.5527786353176716e-02 3.5701460362540051e-02 0.0000000000000000e+00  -1.6685042834272187e-02 -1.5185012244954723e-02 0.0000000000000000e+00  0.0000000000000000e+00 0.0000000000000000e+00 0.0000000000000000e+00  0.0000000000000000e+00 0.0000000000000000e+00 0.0000000000000000e+00  0.0000000000000000e+00 0.0000000000000000e+00 0.0000000000000000e+00  0.0000000000000000e+00 0.0000000000000000e+00 0.0000000000000000e+00  0.0000000000000000e+00 0.0000000000000000e+00 0.0000000000000000e+00  0.0000000000000000e+00 0.0000000000000000e+00 0.0000000000000000e+00  0.0000000000000000e+00 0.0000000000000000e+00 0.0000000000000000e+00  0.0000000000000000e+00 0.0000000000000000e+00 0.0000000000000000e+00  0.0000000000000000e+00 0.0000000000000000e+00 0.0000000000000000e+00  0.0000000000000000e+00 0.0000000000000000e+00 0.0000000000000000e+00  0.0000000000000000e+00 0.0000000000000000e+00 0.0000000000000000e+00  0.0000000000000000e+00 0.0000000000000000e+00 0.0000000000000000e+00  0.0000000000000000e+00 0.0000000000000000e+00 0.0000000000000000e+00  0.0000000000000000e+00 0.0000000000000000e+00 0.0000000000000000e+00  -3.9368642844199539e-02 -3.9391862186938673e-02 0.0000000000000000e+00  3.7044754324229989e-02 3.7029707040793364e-02 0.0000000000000000e+00  -1.4522576432289601e-02 1.2957821037202518e-02 0.0000000000000000e+00  3.8023078952247803e-02 -3.7696553737327249e-02 0.0000000000000000e+00  1.3482131223442793e-02 -2.2575683091752594e-02 0.0000000000000000e+00  -2.2593636879790047e-02 7.7712118321561765e-03 0.0000000000000000e+00  2.2628593198999822e-02 -7.6953085393657167e-03 0.0000000000000000e+00  2.1187866362053474e-02 8.0199635691928350e-03 0.0000000000000000e+00  -7.7132727911492340e-03 2.0587027113558688e-02 0.0000000000000000e+00  -1.0564728997102408e-02 -2.3391897806315530e-02 0.0000000000000000e+00  8.3148455349801725e-03 2.1241591732493823e-02 0.0000000000000000e+00  1.7087234072669582e-02 -1.4660677000867246e-02 0.0000000000000000e+00  -2.0760569983637296e-02 -2.6126016171369474e-03 0.0000000000000000e+00  2.0762315568956826e-02 2.5771586267719646e-03 0.0000000000000000e+00  3.4918831908407784e-02 3.2109931705646994e-02 0.0000000000000000e+00  1.5100725019933333e-02 1.3771159251684210e-02 0.0000000000000000e+00  -2.0605995771682213e-02 -7.2238150216496020e-03 0.0000000000000000e+00  -2.9761855195493882e-02 -3.4553886496762436e-02 0.0000000000000000e+00  -1.4748677390878602e-02 -1.6407820171080157e-02 0.0000000000000000e+00  1.8755169000335758e-02 1.1482347965304968e-02 0.0000000000000000e+00  -1.2132062774157791e-02 1.3685921151363294e-02 0.0000000000000000e+00  7.4679968759056910e-03 -2.0908991549826297e-02 0.0000000000000000e+00  -3.3226366020111596e-03 2.0847119113188765e-02 0.0000000000000000e+00  2.3818162986874894e-03 1.9499953300366128e-02 0.0000000000000000e+00  2.7173486916755190e-03 -2.0090391065296809e-02 0.0000000000000000e+00  -2.3906628220972293e-03 -1.9512178718205514e-02 0.0000000000000000e+00  -3.6599172339158922e-02 -3.4073192830048886e-02 0.0000000000000000e+00  -3.8216186878884832e-02 -3.7959870617583095e-02 0.0000000000000000e+00  1.1696995928107421e-02 -1.2295431021543788e-02 0.0000000000000000e+00  -3.8623213302020051e-02 -4.0170641753740910e-02 0.0000000000000000e+00  3.8513336757420823e-02 -3.9644987343633843e-02 0.0000000000000000e+00  1.1609877965871608e-02 1.2175095702083043e-02 0.0000000000000000e+00  -1.4787190302278239e-02 -1.4756431783641678e-02 0.0000000000000000e+00  -2.1433600899890173e-02 2.3232585427139332e-03 0.0000000000000000e+00  2.1457684415624893e-02 -2.2941206308423447e-03 0.0000000000000000e+00  -1.6146660721744161e-02 -1.5038074778437837e-02 0.0000000000000000e+00  -3.6979166593076152e-02 3.5230984378894104e-02 0.0000000000000000e+00  3.3795386160606927e-02 -2.6300324919689221e-02 0.0000000000000000e+00  -1.1789360785885465e-02 -1.1181026323563416e-02 0.0000000000000000e+00  2.5142058067182515e-02 -2.6024064533853971e-02 0.0000000000000000e+00  2.6503750210819542e-02 -2.5619452914392070e-02 0.0000000000000000e+00  1.1969935370776896e-02 -1.1394089991802109e-02 0.0000000000000000e+00  -2.7318871523779015e-02 -2.7959536770873112e-02 0.0000000000000000e+00  -2.2349436167461371e-02 2.3318008045499494e-02 0.0000000000000000e+00  -1.3224531864755158e-02 1.3514725786089104e-02 0.0000000000000000e+00  -1.2538258086692778e-02 -1.3875101424388275e-02 0.0000000000000000e+00  1.3837306788128867e-02 1.3585279061844282e-02 0.0000000000000000e+00  3.2826197427274481e-02 -3.6626426347222969e-02 0.0000000000000000e+00  -3.0368728127180819e-02 -2.9879729656554971e-02 0.0000000000000000e+00  -9.9547040512307765e-03 1.1372409111364576e-02 0.0000000000000000e+00  9.9494921360037143e-03 1.1366033078596299e-02 0.0000000000000000e+00  -1.3028290132393710e-02 1.2911075874093262e-02 0.0000000000000000e+00  -7.9401883194078725e-03 6.7647979288454427e-03 0.0000000000000000e+00  7.9753607530902628e-03 9.3241851914188708e-03 0.0000000000000000e+00  2.6459464118656111e-02 2.7185063902231334e-02 0.0000000000000000e+00  -1.3832916154987327e-02 1.1397534930998956e-02 0.0000000000000000e+00  3.8472406082747775e-02 -3.4579816533977702e-02 0.0000000000000000e+00  -5.9773624165781504e-03 7.0845931265077419e-03 0.0000000000000000e+00  4.3839991499551041e-02 4.4008681998325173e-02 0.0000000000000000e+00  8.9250608983131759e-03 -1.0296832671335264e-02 0.0000000000000000e+00  7.0687100846942956e-03 -5.9972805006823409e-03 0.0000000000000000e+00  8.8724944169188604e-03 7.5244791134132056e-03 0.0000000000000000e+00  -3.6395162056643268e-02 2.7729832969965604e-02 0.0000000000000000e+00  -4.3986679450089321e-02 4.4215505127207545e-02 0.0000000000000000e+00  7.4893672218627420e-03 6.3773679884421338e-03 0.0000000000000000e+00  5.8391444768894595e-03 6.8642141870294713e-03 0.0000000000000000e+00  -7.9672955613067295e-03 -6.8601010562435033e-03 0.0000000000000000e+00  -5.7729055185523782e-03 -6.8412583833569384e-03 0.0000000000000000e+00  1.7479924562732115e-02 1.7570043558407366e-02 0.0000000000000000e+00  -4.4121580434611108e-03 -4.4035721135579180e-03 0.0000000000000000e+00  0.0000000000000000e+00 0.0000000000000000e+00 0.0000000000000000e+00  0.0000000000000000e+00 0.0000000000000000e+00 0.0000000000000000e+00  4.7880338337536240e-03 -4.7599346363852608e-03 0.0000000000000000e+00  -5.2153146956890051e-03 5.2094963761646707e-03 0.0000000000000000e+00  -3.3244465066096032e-02 -2.3881887728216929e-02 0.0000000000000000e+00  3.1058704256146350e-02 -3.1425918092628805e-02 0.0000000000000000e+00  3.6329580102570209e-02 3.5566600272912863e-02 0.0000000000000000e+00  2.1326053622083289e-02 2.0234224635243256e-02 0.0000000000000000e+00  0.0000000000000000e+00 0.0000000000000000e+00 0.0000000000000000e+00  1.2028498996638510e-02 -1.2844984628425702e-02 0.0000000000000000e+00  1.6843819736041113e-02 -1.7616587294823766e-02 0.0000000000000000e+00  -2.5806686994435484e-02 3.3631080863967683e-02 0.0000000000000000e+00  -3.5392317931550531e-02 3.7914128472010346e-02 0.0000000000000000e+00  2.5149705663619248e-02 3.3010375200154027e-02 0.0000000000000000e+00  3.5127557764600040e-02 3.8079775956137173e-02 0.0000000000000000e+00  -2.9766310725652553e-02 1.5004315116425217e-02 0.0000000000000000e+00  -3.4304739523074598e-02 3.4240834763633439e-02 0.0000000000000000e+00  0.0000000000000000e+00 0.0000000000000000e+00 0.0000000000000000e+00  3.6862386573366136e-02 2.9520047356222961e-02 0.0000000000000000e+00  -7.9023989370140425e-03 -1.3383671830075985e-02 0.0000000000000000e+00  3.4216936997591811e-02 3.4081331728648745e-02 0.0000000000000000e+00  -2.4917695039296795e-02 2.4818212110578643e-02 0.0000000000000000e+00  -1.0403450741108536e-02 -9.2801641658316822e-03 0.0000000000000000e+00  -1.6028681765223925e-02 -1.1874468535673432e-02 0.0000000000000000e+00  2.3959557568749845e-02 -3.6596850660997077e-02 0.0000000000000000e+00  2.4212526704714535e-02 2.4018231784674417e-02 0.0000000000000000e+00  4.7477044327730849e-03 4.7247699841390309e-03 0.0000000000000000e+00  -7.5697181020333163e-03 -2.7309046919169799e-02 0.0000000000000000e+00  1.4268419169185888e-02 -1.3151322455685630e-02 0.0000000000000000e+00  3.4376255007823472e-02 1.8790727869666218e-02 0.0000000000000000e+00  -8.9275815166586989e-03 1.0207520775773081e-02 0.0000000000000000e+00  -1.8574422832639676e-02 1.8614478612083572e-02 0.0000000000000000e+00  -2.6271344398762754e-02 2.6720261943888390e-02 0.0000000000000000e+00  -8.2970625151480692e-03 -9.7245784641077568e-03 0.0000000000000000e+00  0.0000000000000000e+00 0.0000000000000000e+00 0.0000000000000000e+00  -1.0763843275251470e-02 9.4683969801601289e-03 0.0000000000000000e+00  1.4074169206943759e-04 -2.9931355962577576e-02 0.0000000000000000e+00  -7.3872269553426789e-06 3.0546095322293774e-02 0.0000000000000000e+00  -1.6404375916608586e-02 -1.6690725076385072e-02 0.0000000000000000e+00  -4.5234823285634669e-02 4.4213424225221579e-02 0.0000000000000000e+00  1.5439663549323728e-02 1.6788840041781029e-02 0.0000000000000000e+00  0.0000000000000000e+00 0.0000000000000000e+00 0.0000000000000000e+00  -9.6806467701294925e-03 -8.2582022934386823e-03 0.0000000000000000e+00  3.0504488935424793e-02 -1.4799648715261076e-02 0.0000000000000000e+00  1.4938762699056335e-02 -7.5533241138712988e-03 0.0000000000000000e+00  1.5188948142743972e-02 -3.2694107919807612e-02 0.0000000000000000e+00  0.0000000000000000e+00 0.0000000000000000e+00 0.0000000000000000e+00  1.1924493906194315e-02 1.0773045898476897e-02 0.0000000000000000e+00  0.0000000000000000e+00 0.0000000000000000e+00 0.0000000000000000e+00  -1.4447550162232273e-02 8.0285641344481282e-03 0.0000000000000000e+00  4.5231090009841837e-02 4.4450369312445809e-02 0.0000000000000000e+00  9.7125591826028798e-03 -1.1919116585095009e-02 0.0000000000000000e+00  2.3483833339884234e-02 -2.5089298460537087e-02 0.0000000000000000e+00  7.4002748717025826e-03 2.9663837004160875e-02 0.0000000000000000e+00  -1.5608262652953961e-02 3.0640999841403147e-02 0.0000000000000000e+00  -3.6593827330455457e-02 -3.0670539836799071e-02 0.0000000000000000e+00  0.0000000000000000e+00 0.0000000000000000e+00 0.0000000000000000e+00  -3.6474860946421057e-02 3.2020110285755174e-02 0.0000000000000000e+00  0.0000000000000000e+00 0.0000000000000000e+00 0.0000000000000000e+00  0.0000000000000000e+00 0.0000000000000000e+00 0.0000000000000000e+00  -2.5587922028767019e-02 