<?xml version="1.0"?>
<VTKFile type="UnstructuredGrid"  version="0.1"  >
<UnstructuredGrid>
<Piece  NumberOfPoints="1109" NumberOfCells="1972">
<Points>
<DataArray  type="Float64"  NumberOfComponents="3"  format="ascii">0 1 0  0 0 0  1 0 0  1 1 0  0.8968458805257912 0.5501332934257217 0  0.9 0.5 0  0.8968458805257911 0.4498667065742781 0  0.8874332644514524 0.4005240451340579 0  0.8719105943553006 0.3527501789261288 0  0.8505226720175453 0.3072985303593135 0  0.823606797749979 0.2648858990830106 0  0.7915874509685645 0.2261811576285244 0  0.7549695958994758 0.1917947028896841 0  0.7143307179915988 0.162268829799194 0  0.6703117166260287 0.138069179013592 0  0.6236067977499788 0.1195773934819385 0  0.5749525258342897 0.1070850997085245 0  0.5251162078117251 0.1007893086286913 0  0.4748837921882747 0.1007893086286913 0  0.4250474741657101 0.1070850997085245 0  0.376393202250021 0.1195773934819386 0  0.3296882833739712 0.1380691790135921 0  0.2856692820084015 0.1622688297991939 0  0.2450304041005242 0.1917947028896843 0  0.2084125490314353 0.2261811576285246 0  0.1763932022500209 0.2648858990830109 0  0.1494773279824546 0.3072985303593139 0  0.1280894056446994 0.3527501789261288 0  0.1125667355485475 0.4005240451340581 0  0.1031541194742088 0.4498667065742783 0  0.09999999999999998 0.5 0  0.1031541194742089 0.5501332934257218 0  0.1125667355485476 0.5994759548659421 0  0.1280894056446995 0.6472498210738713 0  0.1494773279824546 0.6927014696406861 0  0.176393202250021 0.7351141009169893 0  0.2084125490314355 0.7738188423714756 0  0.2450304041005241 0.8082052971103157 0  0.2856692820084012 0.837731170200806 0  0.3296882833739709 0.8619308209864078 0  0.3763932022500212 0.8804226065180615 0  0.4250474741657101 0.8929149002914756 0  0.4748837921882746 0.8992106913713087 0  0.5251162078117254 0.8992106913713087 0  0.5749525258342899 0.8929149002914755 0  0.623606797749979 0.8804226065180614 0  0.6703117166260291 0.8619308209864078 0  0.7143307179915986 0.8377311702008061 0  0.754969595899476 0.8082052971103157 0  0.7915874509685646 0.7738188423714755 0  0.823606797749979 0.7351141009169893 0  0.8505226720175454 0.6927014696406861 0  0.8719105943553006 0.6472498210738712 0  0.8874332644514524 0.599475954865942 0  0 0.5 0  1 0.5 0  0.5 0 0  0.5 1 0  0 0.75 0  0 0.25 0  1 0.25 0  1 0.75 0  0.75 0 0  0.25 0 0  0.25 1 0  0.75 1 0  0 0.625 0  0 0.375 0  1 0.375 0  1 0.625 0  0.625 0 0  0.375 0 0  0.375 1 0  0.625 1 0  0.125 0 0  0.875 0 0  1 0.125 0  0 0.875 0  0.125 1 0  0.875 1 0  0 0.125 0  1 0.875 0  0.1443946775413214 0.1213187937376868 0  0.8556053224586788 0.8786812062623132 0  0.8556053224586785 0.1213187937376867 0  0.1275360334547992 0.8724639665452008 0  0.9261623581710797 0.1875 0  0.09234641934319709 0.2082689144241477 0  0.9076535806568029 0.7917310855758523 0  0.08970099689351971 0.7603836651344988 0  0.2182130526099624 0.9079579669686324 0  0.07086411995581518 0.07086411995581518 0  1 0.0625 0  0.9375 0 0  0.0625 1 0  0 0.9375 0  0.9291358800441849 0.9291358800441849 0  0.7304772975931939 0.08076335202639119 0  0.2695227024068061 0.08076335202639115 0  0.7697819974699807 0.9105968468121929 0  1 0.6875 0  1 0.3125 0  0.06784168511078095 0.2966417331842567 0  0 0.6875 0  0.1875 0 0  0.8125 0 0  0.9212459744619301 0.2681742056774029 0  0.6875 1 0  0.3125 1 0  0.922097136530977 0.07790286346902295 0  0.9261304603587264 0.7150772115644075 0  0 0.8125 0  0.07432186328509671 0.9256781367149033 0  0.06317182982585627 0.84375 0  0.8548473925302104 0.1928285354262928 0  0.6710199663399635 0.9319471281137308 0  0.2914274450692525 0.9272721924131209 0  0.9226595291420543 0.8597667107019437 0  0.0773404708579461 0.1402332892980563 0  0.8125 1 0  0.06054886616517211 0.65625 0  0.9362657027224049 0.3336129027547622 0  0.1841195715992005 0.8363784907223111 0  0.6625377124131507 0.06023416665880475 0  0.3125 0 0  0.34375 0.06016090820395464 0  0.2153846372786545 0.1270381302276244 0  0.8024953780019808 0.07187189600048093 0  0.1546395545758083 0.9367961467266345 0  0.5625 1 0  0.4375 0 0  0.4375 1 0  0.5625 0 0  0.1844766880788185 0.06724298999790632 0  0.9369725282473387 0.6419809811402504 0  0.791523351719164 0.1369023590147849 0  0.8285961364903059 0.9374018659319692 0  1 0.4375 0  0 0.4375 0  1 0.5625 0  0 0.5625 0  0 0.3125 0  1 0.8125 0  0.0625 0 0  0 0.0625 0  0 0.1875 0  1 0.1875 0  1 0.9375 0  0.9375 1 0  0.6875 0 0  0.1875 1 0  0.8126465958421825 0.8329348088176629 0  0.1550798535647612 0.1867680086445373 0  0.8631981559835366 0.06032295929500282 0  0.1449089435554358 0.7884432695884597 0  0.3538206140027237 0.9399564250283491 0  0.944997661525766 0.4151121561005554 0  0.05500233847423393 0.5848878438994446 0  0.0520912947951912 0.40625 0  0.59375 0.05063263303723638 0  0.6113142584645842 0.9411585052804305 0  0.402402637527157 0.05243074290023167 0  0.05237021982595785 0.7146869946988353 0  0.9514280734197595 0.53125 0  0.04857192658024048 0.46875 0  0.1138995451272664 0.2618291859344329 0  0.1276043399716366 0.06698080255494471 0  0.9496852823490703 0.5873315358652272 0  0.7164226875694513 0.8936714072472519 0  0.728445758907293 0.9483406189827143 0  0.05037626111865807 0.3500677784994627 0  0.9425695009311538 0.1320174568820216 0  0.4108317852857326 0.9488345682840208 0  0.5398628985995173 0.04893133705064829 0  0.46875 0.04573672429098317 0  0.4652931800096448 0.9529811055869081 0  0.53125 0.9542632757090168 0  0.8785971272885281 0.7441734326495726 0  0.8518416617605847 0.7931754903661554 0  0.04183404050302509 0.78125 0  0.7612395846848441 0.8595654412716175 0  0.2310588911243982 0.8579303197600836 0  0.04148050284378633 0.21875 0  0.9494864361787021 0.7612608042848362 0  0.9500000000000001 0.4721339993173143 0  0.04999999999999998 0.5278660006826856 0  0.8781553628189985 0.9246252444972441 0  0.8731991046476956 0.2435858407989878 0  0.09811738497342513 0.6912987895906199 0  0.78125 0.9600244726998853 0  0.09951704281279977 0.8094116423849811 0  0.1723930843372325 0.8914409560171174 0  0.21875 0.9592823984315264 0  0.8808053857873319 0.8333253975559158 0  0.8963977713581862 0.1485308906960134 0  0.9538351164349618 0.2296733193971382 0  0.9502525126806526 0.8180081280125184 0  0.2312490385075739 0.04727387874777968 0  0.2715914187620846 0.8835921407480765 0  0.8075381809024645 0.880775593205643 0  0.71875 0.03518728418751645 0  0.28125 0.03518728418751642 0  0.7646042202168328 0.04444036111707996 0  0.9023329991729737 0.03666350737326187 0  0.03401531498238862 0.15625 0  0.1188530488980251 0.1590855287670435 0  0.9585274478449393 0.2940602659505009 0  0.122777080947294 0.7293581095092172 0  0.9670375667902916 0.09375 0  0.2005134857209875 0.1810792546569654 0  0.04567406045797464 0.8878541658538743 0  0.09375 0.966869578205468 0  0.1562008719445321 0.03232788333739163 0  0.8953932105853648 0.3139420780646932 0  0.7990572522972532 0.1815363722387022 0  0.0968875242781685 0.03463409819727443 0  0.03223722036876893 0.09375 0  0.9004223587754672 0.9633108159792649 0  0.9677627796312311 0.90625 0  0.1015654613822437 0.1029847255361322 0  0.9612688796250578 0.9612688796250578 0  0 0.03125 0  0.03125 0 0  0.04144949962501476 0.9585505003749852 0  0.9558898336496962 0.04411016635030385 0  0.9068917513393455 0.6748714165270275 0  0.1368346895292699 0.830580202512584 0  0.1325215314767946 0.2232188145997174 0  0.07053058491102715 0.2523250971165124 0  0.28125 1 0  0.2618257196382527 0.9585732837283344 0  0.08628220552312613 0.8784418410901162 0  0.6885162251696433 0.09694521726220126 0  0.7451861497985837 0.1260293295250874 0  0.313422114933215 0.09491014745286984 0  0.2604190570795071 0.1249189143540631 0  0.9242490330121279 0.3761177923443456 0  0.8294827367589617 0.1534479284350518 0  0 0.28125 0  0.1085704015556412 0.3026527142683792 0  0.6454377779583714 0.9642341400769985 0  0.1735682150935896 0.1501527832362767 0  0.9118639212665761 0.2270478094042325 0  0.9675029085737417 0.7231519194735394 0  0.9540854621793986 0.6818714685662951 0  0.3411855214203015 0.9011195850022233 0  0.2203778463487443 0.08657146517086198 0  0.04103470738435357 0.04103470738435357 0  0.5692124642834736 0.9350661676969988 0  0.1143804055696223 0.9319617439078584 0  0.08871656954519293 0.3663659127109965 0  0.9630811790855398 0.168250321868886 0  0.8941478109554366 0.1077225817667272 0  0.7685953432959879 0.09339992494635127 0  0.9613334331586147 0.8673647296762501 0  0.84375 0 0  0.8276419188889859 0.03874003995670209 0  0.4987074584280061 0.9312004428379874 0  0.4999999999999999 0.07012294039149713 0  0.906353444207591 0.8962759602721756 0  0.8317000502825128 0.2255938539236174 0  0.060982293117454 0.1847248153131282 0  0.84375 1 0  0.8601163332513452 0.9625346208269469 0  0.07696867235812772 0.6190771663714262 0  0.03866375363197156 0.624370156890833 0  0.386395970129115 0.9182613855572013 0  0.59375 1 0  0.03763634871355165 0.2725691404761272 0  1 0.34375 0  0.9619513789393942 0.3638256452123659 0  0.1705891391383945 0.2215719862571997 0  0.2993345649440622 0.9643978827856838 0  0.2548390693531445 0.917543736811073 0  0.4376701674058487 0.06983678836603174 0  0.6249880952696493 0.07804203554412367 0  0.8891633930840495 0.7080603551933189 0  0 0.65625 0  0.8857454763750297 0.2783067670731572 0  1 0.65625 0  0 0.59375 0  0.9147359581367025 0.7498372322849914 0  0.34375 1 0  0.08128436453222096 0.3306040779845135 0  0.8370204413255111 0.08803482611562097 0  0.4399236117509409 0.9264634199869409 0  0.3763243110806382 0.08093997073896844 0  1 0.78125 0  0.3058827875685617 0.8943637152968825 0  0.891027260700638 0.1971556622156984 0  0.1814462944911871 0.9630031969500565 0  0.1812917788273262 0.1067749496803429 0  0.2291605611046911 0.1598957180171764 0  0.630525566101238 0.03837025329843378 0  0.03363261960646192 0.92260900189631 0  0.2960793559902691 0.1260912307633523 0  0.03663553287191564 0.8179172045954961 0  0.02996523389584273 0.8560987956667739 0  0.09880166525369549 0.8450583124835681 0  0.6923212173088138 0.150169004406393 0  0.502
[...]
<PointData  Vectors="u"> 
<DataArray  type="Float64"  Name="u"  NumberOfComponents="3" format="ascii">0.0000000000000000e+00 0.0000000000000000e+00 0.0000000000000000e+00  0.0000000000000000e+00 0.0000000000000000e+00 0.0000000000000000e+00  0.0000000000000000e+00 0.0000000000000000e+00 0.0000000000000000e+00  0.0000000000000000e+00 0.0000000000000000e+00 0.0000000000000000e+00  -3.7868362931510337e-02 -7.8359993936568534e-03 0.0000000000000000e+00  -3.7269772971813823e-02 -3.9253062208886492e-05 0.0000000000000000e+00  -3.7806240402367006e-02 7.8376872387969920e-03 0.0000000000000000e+00  -3.9017957334823709e-02 1.6374687769093427e-02 0.0000000000000000e+00  -4.0487354134541458e-02 2.5597888506941932e-02 0.0000000000000000e+00  -4.2058304752834418e-02 3.4371749380611542e-02 0.0000000000000000e+00  -4.3551983356528018e-02 4.0709525274752932e-02 0.0000000000000000e+00  -4.4165510286136037e-02 4.3818212432796752e-02 0.0000000000000000e+00  -4.2708743330427734e-02 4.4029870316083165e-02 0.0000000000000000e+00  -3.7969334105779309e-02 4.2829397284043495e-02 0.0000000000000000e+00  -3.0210099885390310e-02 4.1250496860992809e-02 0.0000000000000000e+00  -2.1021717929326160e-02 3.9729957963847783e-02 0.0000000000000000e+00  -1.2073768092903581e-02 3.8312790676683618e-02 0.0000000000000000e+00  -3.9394063609728613e-03 3.7490368550320903e-02 0.0000000000000000e+00  3.9427160663799048e-03 3.7462543845234973e-02 0.0000000000000000e+00  1.2052327106600841e-02 3.8313291615922326e-02 0.0000000000000000e+00  2.1011568046798462e-02 3.9717944880674087e-02 0.0000000000000000e+00  3.0148630609344237e-02 4.1303672953927319e-02 0.0000000000000000e+00  3.7977184756261315e-02 4.2817192646930846e-02 0.0000000000000000e+00  4.2737416600716879e-02 4.3985383794298470e-02 0.0000000000000000e+00  4.4155097945893070e-02 4.3797901684768457e-02 0.0000000000000000e+00  4.3464020194950582e-02 4.0759714447654104e-02 0.0000000000000000e+00  4.2085308077464856e-02 3.4445871550946666e-02 0.0000000000000000e+00  4.0532598773498123e-02 2.5670931867843180e-02 0.0000000000000000e+00  3.8993814351525519e-02 1.6328295773795399e-02 0.0000000000000000e+00  3.7832524858756815e-02 7.8789316454801472e-03 0.0000000000000000e+00  3.7298179378702452e-02 -8.1628030758922941e-05 0.0000000000000000e+00  3.7748735113869253e-02 -7.8765577655217668e-03 0.0000000000000000e+00  3.9001576152412669e-02 -1.6365832199296756e-02 0.0000000000000000e+00  4.0474788130887424e-02 -2.5633956439767826e-02 0.0000000000000000e+00  4.2040079280675581e-02 -3.4356118958019946e-02 0.0000000000000000e+00  4.3554153186830508e-02 -4.0677765256549418e-02 0.0000000000000000e+00  4.3988860481543324e-02 -4.3675757986934752e-02 0.0000000000000000e+00  4.2552737733731492e-02 -4.4002149912083136e-02 0.0000000000000000e+00  3.8026187730877722e-02 -4.2829142319965770e-02 0.0000000000000000e+00  3.0185722682640293e-02 -4.1234930034739256e-02 0.0000000000000000e+00  2.1037942862683921e-02 -3.9746128177004604e-02 0.0000000000000000e+00  1.2073290660361603e-02 -3.8376262873686721e-02 0.0000000000000000e+00  3.9170367225084563e-03 -3.7483448914871743e-02 0.0000000000000000e+00  -3.9621607574983472e-03 -3.7447629318354513e-02 0.0000000000000000e+00  -1.2055739502846502e-02 -3.8309397474114194e-02 0.0000000000000000e+00  -2.0953681766091456e-02 -3.9747802942872307e-02 0.0000000000000000e+00  -3.0165020559288391e-02 -4.1272759960817224e-02 0.0000000000000000e+00  -3.7967117716347323e-02 -4.2707366315078231e-02 0.0000000000000000e+00  -4.2569847677781603e-02 -4.3928955581317951e-02 0.0000000000000000e+00  -4.4181328333243515e-02 -4.3686524209374557e-02 0.0000000000000000e+00  -4.3413937771181722e-02 -4.0649209684619908e-02 0.0000000000000000e+00  -4.2000140993039663e-02 -3.4370489394411584e-02 0.0000000000000000e+00  -4.0465160709366191e-02 -2.5612652612317727e-02 0.0000000000000000e+00  -3.9009337940211206e-02 -1.6374671229609988e-02 0.0000000000000000e+00  0.0000000000000000e+00 0.0000000000000000e+00 0.0000000000000000e+00  0.0000000000000000e+00 0.0000000000000000e+00 0.0000000000000000e+00  0.0000000000000000e+00 0.0000000000000000e+00 0.0000000000000000e+00  0.0000000000000000e+00 0.0000000000000000e+00 0.0000000000000000e+00  0.0000000000000000e+00 0.0000000000000000e+00 0.0000000000000000e+00  0.0000000000000000e+00 0.0000000000000000e+00 0.0000000000000000e+00  0.0000000000000000e+00 0.0000000000000000e+00 0.0000000000000000e+00  0.0000000000000000e+00 0.0000000000000000e+00 0.0000000000000000e+00  0.0000000000000000e+00 0.0000000000000000e+00 0.0000000000000000e+00  0.0000000000000000e+00 0.0000000000000000e+00 0.0000000000000000e+00  0.0000000000000000e+00 0.0000000000000000e+00 0.0000000000000000e+00  0.0000000000000000e+00 0.0000000000000000e+00 0.0000000000000000e+00  0.0000000000000000e+00 0.0000000000000000e+00 0.0000000000000000e+00  0.0000000000000000e+00 0.0000000000000000e+00 0.0000000000000000e+00  0.0000000000000000e+00 0.0000000000000000e+00 0.0000000000000000e+00  0.0000000000000000e+00 0.0000000000000000e+00 0.0000000000000000e+00  0.0000000000000000e+00 0.0000000000000000e+00 0.0000000000000000e+00  0.0000000000000000e+00 0.0000000000000000e+00 0.0000000000000000e+00  0.0000000000000000e+00 0.0000000000000000e+00 0.0000000000000000e+00  0.0000000000000000e+00 0.0000000000000000e+00 0.0000000000000000e+00  0.0000000000000000e+00 0.0000000000000000e+00 0.0000000000000000e+00  0.0000000000000000e+00 0.0000000000000000e+00 0.0000000000000000e+00  0.0000000000000000e+00 0.0000000000000000e+00 0.0000000000000000e+00  0.0000000000000000e+00 0.0000000000000000e+00 0.0000000000000000e+00  0.0000000000000000e+00 0.0000000000000000e+00 0.0000000000000000e+00  0.0000000000000000e+00 0.0000000000000000e+00 0.0000000000000000e+00  0.0000000000000000e+00 0.0000000000000000e+00 0.0000000000000000e+00  0.0000000000000000e+00 0.0000000000000000e+00 0.0000000000000000e+00  2.0947940675477408e-02 2.0577477768237054e-02 0.0000000000000000e+00  -2.0962891102585361e-02 -2.0662179834938441e-02 0.0000000000000000e+00  -2.0925607451812333e-02 2.0554327691073748e-02 0.0000000000000000e+00  1.9719237646622395e-02 -1.9762467846693367e-02 0.0000000000000000e+00  -1.5388304103463703e-02 1.6359530771601440e-02 0.0000000000000000e+00  2.0315681218228469e-02 2.0729877442679727e-02 0.0000000000000000e+00  -2.0325115326447714e-02 -2.0644592540416173e-02 0.0000000000000000e+00  2.1553168406433627e-02 -2.0894881121614122e-02 0.0000000000000000e+00  2.0991237155445337e-02 -2.0792252959150530e-02 0.0000000000000000e+00  8.3769702182860898e-03 8.3859560254353396e-03 0.0000000000000000e+00  0.0000000000000000e+00 0.0000000000000000e+00 0.0000000000000000e+00  0.0000000000000000e+00 0.0000000000000000e+00 0.0000000000000000e+00  0.0000000000000000e+00 0.0000000000000000e+00 0.0000000000000000e+00  0.0000000000000000e+00 0.0000000000000000e+00 0.0000000000000000e+00  -8.4212192087349813e-03 -8.3684313002907358e-03 0.0000000000000000e+00  -1.8990925881389956e-02 2.0918182877546904e-02 0.0000000000000000e+00  1.9041191535089815e-02 2.0949744207876642e-02 0.0000000000000000e+00  -2.0736252118086849e-02 -2.0925896158541877e-02 0.0000000000000000e+00  0.0000000000000000e+00 0.0000000000000000e+00 0.0000000000000000e+00  0.0000000000000000e+00 0.0000000000000000e+00 0.0000000000000000e+00  1.8803055366650598e-02 1.5510535584728398e-02 0.0000000000000000e+00  0.0000000000000000e+00 0.0000000000000000e+00 0.0000000000000000e+00  0.0000000000000000e+00 0.0000000000000000e+00 0.0000000000000000e+00  0.0000000000000000e+00 0.0000000000000000e+00 0.0000000000000000e+00  -2.0336067472124360e-02 1.8539313053812959e-02 0.0000000000000000e+00  0.0000000000000000e+00 0.0000000000000000e+00 0.0000000000000000e+00  0.0000000000000000e+00 0.0000000000000000e+00 0.0000000000000000e+00  -9.5575213017712306e-03 9.5553450097553977e-03 0.0000000000000000e+00  -1.9866607709303777e-02 -1.7203286348743400e-02 0.0000000000000000e+00  0.0000000000000000e+00 0.0000000000000000e+00 0.0000000000000000e+00  9.0155055395514314e-03 -9.0266903983347233e-03 0.0000000000000000e+00  1.1904920845474438e-02 -1.3123951328760677e-02 0.0000000000000000e+00  -2.9200843457682507e-02 2.9126554571863864e-02 0.0000000000000000e+00  -1.4383217798615162e-02 -2.0213943546315723e-02 0.0000000000000000e+00  1.6753893259466301e-02 -1.9865230818749174e-02 0.0000000000000000e+00  -1.3579338353521179e-02 -1.4637552311569227e-02 0.0000000000000000e+00  1.3625078183059131e-02 1.4511861849223921e-02 0.0000000000000000e+00  0.0000000000000000e+00 0.0000000000000000e+00 0.0000000000000000e+00  1.8489489849786239e-02 -1.2088353468325827e-02 0.0000000000000000e+00  -1.9030606146945551e-02 1.3262193403178520e-02 0.0000000000000000e+00  3.1093045305578149e-02 -3.1208791512230369e-02 0.0000000000000000e+00  -1.2362334736852384e-02 1.8165024519619509e-02 0.0000000000000000e+00  0.0000000000000000e+00 0.0000000000000000e+00 0.0000000000000000e+00  1.2009371620496152e-02 1.8379711408662375e-02 0.0000000000000000e+00  2.7692905233726223e-02 2.7977886304170425e-02 0.0000000000000000e+00  -1.6267133705350805e-02 1.5389500761623300e-02 0.0000000000000000e+00  1.3062973195432641e-02 -1.1849348736674006e-02 0.0000000000000000e+00  0.0000000000000000e+00 0.0000000000000000e+00 0.0000000000000000e+00  0.0000000000000000e+00 0.0000000000000000e+00 0.0000000000000000e+00  0.0000000000000000e+00 0.0000000000000000e+00 0.0000000000000000e+00  0.0000000000000000e+00 0.0000000000000000e+00 0.0000000000000000e+00  1.4886285168150843e-02 1.3916429210301654e-02 0.0000000000000000e+00  -1.9791041132809141e-02 -1.1844197690311224e-02 0.0000000000000000e+00  -2.9027895299453925e-02 2.9218527335781879e-02 0.0000000000000000e+00  -1.3633690963469766e-02 -1.2463950943087068e-02 0.0000000000000000e+00  0.0000000000000000e+00 0.0000000000000000e+00 0.0000000000000000e+00  0.0000000000000000e+00 0.0000000000000000e+00 0.0000000000000000e+00  0.0000000000000000e+00 0.0000000000000000e+00 0.0000000000000000e+00  0.0000000000000000e+00 0.0000000000000000e+00 0.0000000000000000e+00  0.0000000000000000e+00 0.0000000000000000e+00 0.0000000000000000e+00  0.0000000000000000e+00 0.0000000000000000e+00 0.0000000000000000e+00  0.0000000000000000e+00 0.0000000000000000e+00 0.0000000000000000e+00  0.0000000000000000e+00 0.0000000000000000e+00 0.0000000000000000e+00  0.0000000000000000e+00 0.0000000000000000e+00 0.0000000000000000e+00  0.0000000000000000e+00 0.0000000000000000e+00 0.0000000000000000e+00  0.0000000000000000e+00 0.0000000000000000e+00 0.0000000000000000e+00  0.0000000000000000e+00 0.0000000000000000e+00 0.0000000000000000e+00  0.0000000000000000e+00 0.0000000000000000e+00 0.0000000000000000e+00  0.0000000000000000e+00 0.0000000000000000e+00 0.0000000000000000e+00  -3.2121726651730402e-02 -3.2164649677358464e-02 0.0000000000000000e+00  3.0259749977418551e-02 3.0208947383079963e-02 0.0000000000000000e+00  -1.1829452051869483e-02 1.0627378446730685e-02 0.0000000000000000e+00  3.1113857778319775e-02 -3.0793125759789274e-02 0.0000000000000000e+00  1.1508438559661181e-02 -1.8705447838739522e-02 0.0000000000000000e+00  -1.8840177168527053e-02 6.7449407102040532e-03 0.0000000000000000e+00  1.8873025810359770e-02 -6.6762284719956823e-03 0.0000000000000000e+00  1.7652788202687734e-02 6.9435919766729732e-03 0.0000000000000000e+00  -6.6780288563792920e-03 1.7148617365008844e-02 0.0000000000000000e+00  -9.1077850569680711e-03 -1.9454601279044047e-02 0.0000000000000000e+00  7.1964562620242421e-03 1.7691507219263287e-02 0.0000000000000000e+00  1.4078547320958099e-02 -1.2274094247768250e-02 0.0000000000000000e+00  -1.7378193153616231e-02 -2.2851628827797264e-03 0.0000000000000000e+00  1.7377875571843993e-02 2.2541904087836346e-03 0.0000000000000000e+00  2.8706786837608675e-02 2.6495909701831459e-02 0.0000000000000000e+00  1.2291994412216850e-02 1.1279734941282349e-02 0.0000000000000000e+00  -1.7176647935814783e-02 -6.2726925093681603e-03 0.0000000000000000e+00  -2.4696771654489344e-02 -2.8456310767318766e-02 0.0000000000000000e+00  -1.2306802045977654e-02 -1.3510209635840832e-02 0.0000000000000000e+00  1.5527937074484429e-02 9.8086410496352854e-03 0.0000000000000000e+00  -9.9543542758344181e-03 1.1144087223137859e-02 0.0000000000000000e+00  6.4778360266339605e-03 -1.7426078159795071e-02 0.0000000000000000e+00  -2.8965991827481202e-03 1.7444182007724435e-02 0.0000000000000000e+00  2.0862160612105402e-03 1.6314685332303729e-02 0.0000000000000000e+00  2.3749653035219651e-03 -1.6814261652370679e-02 0.0000000000000000e+00  -2.0868766428681499e-03 -1.6330143282306423e-02 0.0000000000000000e+00  -3.0063427163672177e-02 -2.8047603166171713e-02 0.0000000000000000e+00  -3.1257650085068818e-02 -3.1000983868431784e-02 0.0000000000000000e+00  9.6203303948640771e-03 -1.0148556742172495e-02 0.0000000000000000e+00  -3.1649831068616602e-02 -3.2931210565830045e-02 0.0000000000000000e+00  3.1526164394081034e-02 -3.2481949981638392e-02 0.0000000000000000e+00  9.5461080285148582e-03 1.0049835502452260e-02 0.0000000000000000e+00  -1.2163229550635991e-02 -1.2218010103112855e-02 0.0000000000000000e+00  -1.7944157281837254e-02 2.0307286021806993e-03 0.0000000000000000e+00  1.7968579261728783e-02 -2.0079135555931618e-03 0.0000000000000000e+00  -1.3139535404323591e-02 -1.2301966143039075e-02 0.0000000000000000e+00  -3.0342736904054923e-02 2.8924106411766844e-02 0.0000000000000000e+00  2.7891718083878667e-02 -2.2019111892598364e-02 0.0000000000000000e+00  -9.7366622749176842e-03 -9.1958921052898608e-03 0.0000000000000000e+00  2.0602632562129831e-02 -2.1261698557805183e-02 0.0000000000000000e+00  2.1616512717721366e-02 -2.0963802784111172e-02 0.0000000000000000e+00  9.8846315895235095e-03 -9.3701526662569468e-03 0.0000000000000000e+00  -2.2333917595615604e-02 -2.2797205355501473e-02 0.0000000000000000e+00  -1.8272271766297997e-02 1.9000462254579211e-02 0.0000000000000000e+00  -1.0876789233230807e-02 1.1172484853704319e-02 0.0000000000000000e+00  -1.0301758656516067e-02 -1.1370266808523556e-02 0.0000000000000000e+00  1.1442554709583502e-02 1.1171047296672955e-02 0.0000000000000000e+00  2.7134382444397812e-02 -3.0127067409568515e-02 0.0000000000000000e+00  -2.4799284856079219e-02 -2.4457326621148658e-02 0.0000000000000000e+00  -8.3491855577056164e-03 9.3660657619650395e-03 0.0000000000000000e+00  8.3480514814029978e-03 9.3601589252100634e-03 0.0000000000000000e+00  -1.0788646494548391e-02 1.0617579967375442e-02 0.0000000000000000e+00  -6.4531704674003513e-03 5.5526913316026284e-03 0.0000000000000000e+00  6.5619770406692658e-03 7.6218371289513186e-03 0.0000000000000000e+00  2.1620653539314989e-02 2.2156749645593610e-02 0.0000000000000000e+00  -1.1401582595765196e-02 9.5827479321872085e-03 0.0000000000000000e+00  3.1637165968001958e-02 -2.8559357046698614e-02 0.0000000000000000e+00  -4.9083038535100328e-03 5.7554612187333395e-03 0.0000000000000000e+00  3.5788832722004532e-02 3.5943396387403286e-02 0.0000000000000000e+00  7.3241996096773294e-03 -8.3730927548679186e-03 0.0000000000000000e+00  5.7433910798337356e-03 -4.9240992564960080e-03 0.0000000000000000e+00  7.2591560599437792e-03 6.1905381513576302e-03 0.0000000000000000e+00  -3.0045095526445714e-02 2.3234763123436357e-02 0.0000000000000000e+00  -3.5909058747743000e-02 3.6111182788136520e-02 0.0000000000000000e+00  6.0855530890413911e-03 5.2360304960272922e-03 0.0000000000000000e+00  4.7937324606609584e-03 5.5762247442237888e-03 0.0000000000000000e+00  -6.4760269740821042e-03 -5.6315170410323016e-03 0.0000000000000000e+00  -4.7382031843261245e-03 -5.5633971752547997e-03 0.0000000000000000e+00  1.4251775631498473e-02 1.4321707331934792e-02 0.0000000000000000e+00  -3.5891060100138178e-03 -3.5814696716481263e-03 0.0000000000000000e+00  0.0000000000000000e+00 0.0000000000000000e+00 0.0000000000000000e+00  0.0000000000000000e+00 0.0000000000000000e+00 0.0000000000000000e+00  3.8938942975460956e-03 -3.8751870699522744e-03 0.0000000000000000e+00  -4.2447777719140829e-03 4.2412311961270007e-03 0.0000000000000000e+00  -2.7476041199030563e-02 -2.0107319705254190e-02 0.0000000000000000e+00  2.5370412865751219e-02 -2.5630318311174072e-02 0.0000000000000000e+00  2.9763072683618746e-02 2.9103710325982513e-02 0.0000000000000000e+00  1.7541611955731538e-02 1.6747869751830954e-02 0.0000000000000000e+00  0.0000000000000000e+00 0.0000000000000000e+00 0.0000000000000000e+00  1.0030838423584657e-02 -1.0573526985583172e-02 0.0000000000000000e+00  1.3766030474424941e-02 -1.4344792979470269e-02 0.0000000000000000e+00  -2.1625749182771405e-02 2.7762536181974471e-02 0.0000000000000000e+00  -2.9116623367280735e-02 3.1135389569558542e-02 0.0000000000000000e+00  2.1095749351885511e-02 2.7254262829209366e-02 0.0000000000000000e+00  2.8929849317457453e-02 3.1285140437065428e-02 0.0000000000000000e+00  -2.4740645050319233e-02 1.2865512036021281e-02 0.0000000000000000e+00  -2.7988407776789296e-02 2.7956186731096233e-02 0.0000000000000000e+00  0.0000000000000000e+00 0.0000000000000000e+00 0.0000000000000000e+00  3.0397969604675570e-02 2.4619803354523247e-02 0.0000000000000000e+00  -6.7728728840172380e-03 -1.1082169330703634e-02 0.0000000000000000e+00  2.7913909785216635e-02 2.7831929049976830e-02 0.0000000000000000e+00  -2.0463405436623009e-02 2.0392874723904907e-02 0.0000000000000000e+00  -8.5657127295944192e-03 -7.7805042897542819e-03 0.0000000000000000e+00  -1.3232283652449599e-02 -1.0049860069406221e-02 0.0000000000000000e+00  2.0282591529769717e-02 -3.0303679100560608e-02 0.0000000000000000e+00  1.9874164238830282e-02 1.9718660020415418e-02 0.0000000000000000e+00  3.8636860143098049e-03 3.8434254049244452e-03 0.0000000000000000e+00  -6.5788156519327751e-03 -2.2827587570220485e-02 0.0000000000000000e+00  1.1610895129573442e-02 -1.0761304744957741e-02 0.0000000000000000e+00  2.8548126906858751e-02 1.6044198941023661e-02 0.0000000000000000e+00  -7.3421567104028215e-03 8.3537154320907706e-03 0.0000000000000000e+00  -1.5146002099029119e-02 1.5175016178023450e-02 0.0000000000000000e+00  -2.1587851206627338e-02 2.1944418400210951e-02 0.0000000000000000e+00  -6.8206333326218688e-03 -7.9250791806720362e-03 0.0000000000000000e+00  0.0000000000000000e+00 0.0000000000000000e+00 0.0000000000000000e+00  -8.8171113910162479e-03 7.7821297052201432e-03 0.0000000000000000e+00  1.1597349717268422e-04 -2.5109936003091169e-02 0.0000000000000000e+00  -1.3998233664350105e-05 2.5630217390706943e-02 0.0000000000000000e+00  -1.3381881850526880e-02 -1.3599616766466023e-02 0.0000000000000000e+00  -3.6999682714612098e-02 3.6141684228200799e-02 0.0000000000000000e+00  1.2678886219250530e-02 1.3744521234089863e-02 0.0000000000000000e+00  0.0000000000000000e+00 0.0000000000000000e+00 0.0000000000000000e+00  -7.8980099345904164e-03 -6.7900333491080897e-03 0.0000000000000000e+00  2.5369141848383514e-02 -1.2701160248772062e-02 0.0000000000000000e+00  1.2393757215107930e-02 -6.5037367667149940e-03 0.0000000000000000e+00  1.3046352474497929e-02 -2.7211092681955810e-02 0.0000000000000000e+00  0.0000000000000000e+00 0.0000000000000000e+00 0.0000000000000000e+00  9.8174646020588174e-03 9.0122218431676442e-03 0.0000000000000000e+00  0.0000000000000000e+00 0.0000000000000000e+00 0.0000000000000000e+00  -1.1972600963993050e-02 6.9001803282873093e-03 0.0000000000000000e+00  3.6983910211685046e-02 3.6312318386506955e-02 0.0000000000000000e+00  8.1905053172225475e-03 -9.8257923438531646e-03 0.0000000000000000e+00  1.9415612579010519e-02 -2.0636489302884493e-02 0.0000000000000000e+00  6.4294463392952951e-03 2.4823362880311728e-02 0.0000000000000000e+00  -1.3380180616517969e-02 2.5466674886241446e-02 0.0000000000000000e+00  -3.0150691256782852e-02 -2.5514056524941604e-02 0.0000000000000000e+00  0.0000000000000000e+00 0.0000000000000000e+00 0.0000000000000000e+00  -3.0016112611338429e-02 2.6518693356322103e-02 0.0000000000000000e+00  0.0000000000000000e+00 0.0000000000000000e+00 0.0000000000000000e+00  0.0000000000000000e+00 0.0000000000000000e+00 0.0000000000000000e+00  -2.1042414567319409e-02 