<?xml version="1.0"?>
<VTKFile type="UnstructuredGrid"  version="0.1"  >
<UnstructuredGrid>
<Piece  NumberOfPoints="1109" NumberOfCells="1972">
<Points>
<DataArray  type="Float64"  NumberOfComponents="3"  format="ascii">0 1 0  0 0 0  1 0 0  1 1 0  0.8968458805257912 0.5501332934257217 0  0.9 0.5 0  0.8968458805257911 0.4498667065742781 0  0.8874332644514524 0.4005240451340579 0  0.8719105943553006 0.3527501789261288 0  0.8505226720175453 0.3072985303593135 0  0.823606797749979 0.2648858990830106 0  0.7915874509685645 0.2261811576285244 0  0.7549695958994758 0.1917947028896841 0  0.7143307179915988 0.162268829799194 0  0.6703117166260287 0.138069179013592 0  0.6236067977499788 0.1195773934819385 0  0.5749525258342897 0.1070850997085245 0  0.5251162078117251 0.1007893086286913 0  0.4748837921882747 0.1007893086286913 0  0.4250474741657101 0.1070850997085245 0  0.376393202250021 0.1195773934819386 0  0.3296882833739712 0.1380691790135921 0  0.2856692820084015 0.1622688297991939 0  0.2450304041005242 0.1917947028896843 0  0.2084125490314353 0.2261811576285246 0  0.1763932022500209 0.2648858990830109 0  0.1494773279824546 0.3072985303593139 0  0.1280894056446994 0.3527501789261288 0  0.1125667355485475 0.4005240451340581 0  0.1031541194742088 0.4498667065742783 0  0.09999999999999998 0.5 0  0.1031541194742089 0.5501332934257218 0  0.1125667355485476 0.5994759548659421 0  0.1280894056446995 0.6472498210738713 0  0.1494773279824546 0.6927014696406861 0  0.176393202250021 0.7351141009169893 0  0.2084125490314355 0.7738188423714756 0  0.2450304041005241 0.8082052971103157 0  0.2856692820084012 0.837731170200806 0  0.3296882833739709 0.8619308209864078 0  0.3763932022500212 0.8804226065180615 0  0.4250474741657101 0.8929149002914756 0  0.4748837921882746 0.8992106913713087 0  0.5251162078117254 0.8992106913713087 0  0.5749525258342899 0.8929149002914755 0  0.623606797749979 0.8804226065180614 0  0.6703117166260291 0.8619308209864078 0  0.7143307179915986 0.8377311702008061 0  0.754969595899476 0.8082052971103157 0  0.7915874509685646 0.7738188423714755 0  0.823606797749979 0.7351141009169893 0  0.8505226720175454 0.6927014696406861 0  0.8719105943553006 0.6472498210738712 0  0.8874332644514524 0.599475954865942 0  0 0.5 0  1 0.5 0  0.5 0 0  0.5 1 0  0 0.75 0  0 0.25 0  1 0.25 0  1 0.75 0  0.75 0 0  0.25 0 0  0.25 1 0  0.75 1 0  0 0.625 0  0 0.375 0  1 0.375 0  1 0.625 0  0.625 0 0  0.375 0 0  0.375 1 0  0.625 1 0  0.125 0 0  0.875 0 0  1 0.125 0  0 0.875 0  0.125 1 0  0.875 1 0  0 0.125 0  1 0.875 0  0.1443946775413214 0.1213187937376868 0  0.8556053224586788 0.8786812062623132 0  0.8556053224586785 0.1213187937376867 0  0.1275360334547992 0.8724639665452008 0  0.9261623581710797 0.1875 0  0.09234641934319709 0.2082689144241477 0  0.9076535806568029 0.7917310855758523 0  0.08970099689351971 0.7603836651344988 0  0.2182130526099624 0.9079579669686324 0  0.07086411995581518 0.07086411995581518 0  1 0.0625 0  0.9375 0 0  0.0625 1 0  0 0.9375 0  0.9291358800441849 0.9291358800441849 0  0.7304772975931939 0.08076335202639119 0  0.2695227024068061 0.08076335202639115 0  0.7697819974699807 0.9105968468121929 0  1 0.6875 0  1 0.3125 0  0.06784168511078095 0.2966417331842567 0  0 0.6875 0  0.1875 0 0  0.8125 0 0  0.9212459744619301 0.2681742056774029 0  0.6875 1 0  0.3125 1 0  0.922097136530977 0.07790286346902295 0  0.9261304603587264 0.7150772115644075 0  0 0.8125 0  0.07432186328509671 0.9256781367149033 0  0.06317182982585627 0.84375 0  0.8548473925302104 0.1928285354262928 0  0.6710199663399635 0.9319471281137308 0  0.2914274450692525 0.9272721924131209 0  0.9226595291420543 0.8597667107019437 0  0.0773404708579461 0.1402332892980563 0  0.8125 1 0  0.06054886616517211 0.65625 0  0.9362657027224049 0.3336129027547622 0  0.1841195715992005 0.8363784907223111 0  0.6625377124131507 0.06023416665880475 0  0.3125 0 0  0.34375 0.06016090820395464 0  0.2153846372786545 0.1270381302276244 0  0.8024953780019808 0.07187189600048093 0  0.1546395545758083 0.9367961467266345 0  0.5625 1 0  0.4375 0 0  0.4375 1 0  0.5625 0 0  0.1844766880788185 0.06724298999790632 0  0.9369725282473387 0.6419809811402504 0  0.791523351719164 0.1369023590147849 0  0.8285961364903059 0.9374018659319692 0  1 0.4375 0  0 0.4375 0  1 0.5625 0  0 0.5625 0  0 0.3125 0  1 0.8125 0  0.0625 0 0  0 0.0625 0  0 0.1875 0  1 0.1875 0  1 0.9375 0  0.9375 1 0  0.6875 0 0  0.1875 1 0  0.8126465958421825 0.8329348088176629 0  0.1550798535647612 0.1867680086445373 0  0.8631981559835366 0.06032295929500282 0  0.1449089435554358 0.7884432695884597 0  0.3538206140027237 0.9399564250283491 0  0.944997661525766 0.4151121561005554 0  0.05500233847423393 0.5848878438994446 0  0.0520912947951912 0.40625 0  0.59375 0.05063263303723638 0  0.6113142584645842 0.9411585052804305 0  0.402402637527157 0.05243074290023167 0  0.05237021982595785 0.7146869946988353 0  0.9514280734197595 0.53125 0  0.04857192658024048 0.46875 0  0.1138995451272664 0.2618291859344329 0  0.1276043399716366 0.06698080255494471 0  0.9496852823490703 0.5873315358652272 0  0.7164226875694513 0.8936714072472519 0  0.728445758907293 0.9483406189827143 0  0.05037626111865807 0.3500677784994627 0  0.9425695009311538 0.1320174568820216 0  0.4108317852857326 0.9488345682840208 0  0.5398628985995173 0.04893133705064829 0  0.46875 0.04573672429098317 0  0.4652931800096448 0.9529811055869081 0  0.53125 0.9542632757090168 0  0.8785971272885281 0.7441734326495726 0  0.8518416617605847 0.7931754903661554 0  0.04183404050302509 0.78125 0  0.7612395846848441 0.8595654412716175 0  0.2310588911243982 0.8579303197600836 0  0.04148050284378633 0.21875 0  0.9494864361787021 0.7612608042848362 0  0.9500000000000001 0.4721339993173143 0  0.04999999999999998 0.5278660006826856 0  0.8781553628189985 0.9246252444972441 0  0.8731991046476956 0.2435858407989878 0  0.09811738497342513 0.6912987895906199 0  0.78125 0.9600244726998853 0  0.09951704281279977 0.8094116423849811 0  0.1723930843372325 0.8914409560171174 0  0.21875 0.9592823984315264 0  0.8808053857873319 0.8333253975559158 0  0.8963977713581862 0.1485308906960134 0  0.9538351164349618 0.2296733193971382 0  0.9502525126806526 0.8180081280125184 0  0.2312490385075739 0.04727387874777968 0  0.2715914187620846 0.8835921407480765 0  0.8075381809024645 0.880775593205643 0  0.71875 0.03518728418751645 0  0.28125 0.03518728418751642 0  0.7646042202168328 0.04444036111707996 0  0.9023329991729737 0.03666350737326187 0  0.03401531498238862 0.15625 0  0.1188530488980251 0.1590855287670435 0  0.9585274478449393 0.2940602659505009 0  0.122777080947294 0.7293581095092172 0  0.9670375667902916 0.09375 0  0.2005134857209875 0.1810792546569654 0  0.04567406045797464 0.8878541658538743 0  0.09375 0.966869578205468 0  0.1562008719445321 0.03232788333739163 0  0.8953932105853648 0.3139420780646932 0  0.7990572522972532 0.1815363722387022 0  0.0968875242781685 0.03463409819727443 0  0.03223722036876893 0.09375 0  0.9004223587754672 0.9633108159792649 0  0.9677627796312311 0.90625 0  0.1015654613822437 0.1029847255361322 0  0.9612688796250578 0.9612688796250578 0  0 0.03125 0  0.03125 0 0  0.04144949962501476 0.9585505003749852 0  0.9558898336496962 0.04411016635030385 0  0.9068917513393455 0.6748714165270275 0  0.1368346895292699 0.830580202512584 0  0.1325215314767946 0.2232188145997174 0  0.07053058491102715 0.2523250971165124 0  0.28125 1 0  0.2618257196382527 0.9585732837283344 0  0.08628220552312613 0.8784418410901162 0  0.6885162251696433 0.09694521726220126 0  0.7451861497985837 0.1260293295250874 0  0.313422114933215 0.09491014745286984 0  0.2604190570795071 0.1249189143540631 0  0.9242490330121279 0.3761177923443456 0  0.8294827367589617 0.1534479284350518 0  0 0.28125 0  0.1085704015556412 0.3026527142683792 0  0.6454377779583714 0.9642341400769985 0  0.1735682150935896 0.1501527832362767 0  0.9118639212665761 0.2270478094042325 0  0.9675029085737417 0.7231519194735394 0  0.9540854621793986 0.6818714685662951 0  0.3411855214203015 0.9011195850022233 0  0.2203778463487443 0.08657146517086198 0  0.04103470738435357 0.04103470738435357 0  0.5692124642834736 0.9350661676969988 0  0.1143804055696223 0.9319617439078584 0  0.08871656954519293 0.3663659127109965 0  0.9630811790855398 0.168250321868886 0  0.8941478109554366 0.1077225817667272 0  0.7685953432959879 0.09339992494635127 0  0.9613334331586147 0.8673647296762501 0  0.84375 0 0  0.8276419188889859 0.03874003995670209 0  0.4987074584280061 0.9312004428379874 0  0.4999999999999999 0.07012294039149713 0  0.906353444207591 0.8962759602721756 0  0.8317000502825128 0.2255938539236174 0  0.060982293117454 0.1847248153131282 0  0.84375 1 0  0.8601163332513452 0.9625346208269469 0  0.07696867235812772 0.6190771663714262 0  0.03866375363197156 0.624370156890833 0  0.386395970129115 0.9182613855572013 0  0.59375 1 0  0.03763634871355165 0.2725691404761272 0  1 0.34375 0  0.9619513789393942 0.3638256452123659 0  0.1705891391383945 0.2215719862571997 0  0.2993345649440622 0.9643978827856838 0  0.2548390693531445 0.917543736811073 0  0.4376701674058487 0.06983678836603174 0  0.6249880952696493 0.07804203554412367 0  0.8891633930840495 0.7080603551933189 0  0 0.65625 0  0.8857454763750297 0.2783067670731572 0  1 0.65625 0  0 0.59375 0  0.9147359581367025 0.7498372322849914 0  0.34375 1 0  0.08128436453222096 0.3306040779845135 0  0.8370204413255111 0.08803482611562097 0  0.4399236117509409 0.9264634199869409 0  0.3763243110806382 0.08093997073896844 0  1 0.78125 0  0.3058827875685617 0.8943637152968825 0  0.891027260700638 0.1971556622156984 0  0.1814462944911871 0.9630031969500565 0  0.1812917788273262 0.1067749496803429 0  0.2291605611046911 0.1598957180171764 0  0.630525566101238 0.03837025329843378 0  0.03363261960646192 0.92260900189631 0  0.2960793559902691 0.1260912307633523 0  0.03663553287191564 0.8179172045954961 0  0.02996523389584273 0.8560987956667739 0  0.09880166525369549 0.8450583124835681 0  0.6923212173088138 0.150169004406393 0  0.502
[...]
<PointData  Vectors="u"> 
<DataArray  type="Float64"  Name="u"  NumberOfComponents="3" format="ascii">0.0000000000000000e+00 0.0000000000000000e+00 0.0000000000000000e+00  0.0000000000000000e+00 0.0000000000000000e+00 0.0000000000000000e+00  0.0000000000000000e+00 0.0000000000000000e+00 0.0000000000000000e+00  0.0000000000000000e+00 0.0000000000000000e+00 0.0000000000000000e+00  -2.8924489091722926e-02 -6.2255792530804457e-03 0.0000000000000000e+00  -2.8522452466106938e-02 -4.3864329648423642e-05 0.0000000000000000e+00  -2.8861528078779161e-02 6.2459757517659515e-03 0.0000000000000000e+00  -2.9573549056910724e-02 1.2831337115666709e-02 0.0000000000000000e+00  -3.0375571906634851e-02 1.9588233597555352e-02 0.0000000000000000e+00  -3.1251114604291169e-02 2.5677236155834133e-02 0.0000000000000000e+00  -3.2069488079435951e-02 2.9913765239493063e-02 0.0000000000000000e+00  -3.2312244718957717e-02 3.2027994549018557e-02 0.0000000000000000e+00  -3.1259472783659210e-02 3.2299390109356937e-02 0.0000000000000000e+00  -2.8096739845392103e-02 3.1678698857276540e-02 0.0000000000000000e+00  -2.2835936201912505e-02 3.0795401130854043e-02 0.0000000000000000e+00  -1.6289363909465965e-02 2.9959450967363042e-02 0.0000000000000000e+00  -9.5673817598885200e-03 2.9152881887539166e-02 0.0000000000000000e+00  -3.1563684500015409e-03 2.8686953630470500e-02 0.0000000000000000e+00  3.1456046643570813e-03 2.8659446697635552e-02 0.0000000000000000e+00  9.5359320349921450e-03 2.9151819524233191e-02 0.0000000000000000e+00  1.6272937948466307e-02 2.9952341654905509e-02 0.0000000000000000e+00  2.2781072899176281e-02 3.0843085562989352e-02 0.0000000000000000e+00  2.8094913194461682e-02 3.1668927451667640e-02 0.0000000000000000e+00  3.1279860716061210e-02 3.2269260994910273e-02 0.0000000000000000e+00  3.2303157644158434e-02 3.2015061415624969e-02 0.0000000000000000e+00  3.2007053375969235e-02 2.9958586653712250e-02 0.0000000000000000e+00  3.1274931396770428e-02 2.5725731913174163e-02 0.0000000000000000e+00  3.0416395789518352e-02 1.9653649566856227e-02 0.0000000000000000e+00  2.9548080342632337e-02 1.2792611605446810e-02 0.0000000000000000e+00  2.8888871610045452e-02 6.2706834793397181e-03 0.0000000000000000e+00  2.8550798884822298e-02 -7.5720116214209371e-05 0.0000000000000000e+00  2.8813605562483031e-02 -6.2741655632182307e-03 0.0000000000000000e+00  2.9557997089923738e-02 -1.2813314371677764e-02 0.0000000000000000e+00  3.0365506892320312e-02 -1.9623811650770467e-02 0.0000000000000000e+00  3.1234359148783700e-02 -2.5666297111750211e-02 0.0000000000000000e+00  3.2068922993744427e-02 -2.9899307503151680e-02 0.0000000000000000e+00  3.2192276282488566e-02 -3.1937525256704513e-02 0.0000000000000000e+00  3.1156337281404441e-02 -3.2278863411014942e-02 0.0000000000000000e+00  2.8141589576795301e-02 -3.1681066507431598e-02 0.0000000000000000e+00  2.2822798701491908e-02 -3.0784558760899056e-02 0.0000000000000000e+00  1.6301671246013560e-02 -2.9971637160632617e-02 0.0000000000000000e+00  9.5535220296034101e-03 -2.9212542739352809e-02 0.0000000000000000e+00  3.1220224245399751e-03 -2.8681290620226542e-02 0.0000000000000000e+00  -3.1793088140862390e-03 -2.8651012348523665e-02 0.0000000000000000e+00  -9.5414198682264965e-03 -2.9152829459012302e-02 0.0000000000000000e+00  -1.6227213255618652e-02 -2.9977083789189302e-02 0.0000000000000000e+00  -2.2791859355483623e-02 -3.0813419399145128e-02 0.0000000000000000e+00  -2.8116325302761317e-02 -3.1585244297368607e-02 0.0000000000000000e+00  -3.1173980916603714e-02 -3.2227286549965518e-02 0.0000000000000000e+00  -3.2329142591038924e-02 -3.1944630295692757e-02 0.0000000000000000e+00  -3.1969186282923098e-02 -2.9887629586477255e-02 0.0000000000000000e+00  -3.1207972887167725e-02 -2.5682196823796324e-02 0.0000000000000000e+00  -3.0359472250802901e-02 -1.9596030927725515e-02 0.0000000000000000e+00  -2.9558085209741378e-02 -1.2830582737950451e-02 0.0000000000000000e+00  0.0000000000000000e+00 0.0000000000000000e+00 0.0000000000000000e+00  0.0000000000000000e+00 0.0000000000000000e+00 0.0000000000000000e+00  0.0000000000000000e+00 0.0000000000000000e+00 0.0000000000000000e+00  0.0000000000000000e+00 0.0000000000000000e+00 0.0000000000000000e+00  0.0000000000000000e+00 0.0000000000000000e+00 0.0000000000000000e+00  0.0000000000000000e+00 0.0000000000000000e+00 0.0000000000000000e+00  0.0000000000000000e+00 0.0000000000000000e+00 0.0000000000000000e+00  0.0000000000000000e+00 0.0000000000000000e+00 0.0000000000000000e+00  0.0000000000000000e+00 0.0000000000000000e+00 0.0000000000000000e+00  0.0000000000000000e+00 0.0000000000000000e+00 0.0000000000000000e+00  0.0000000000000000e+00 0.0000000000000000e+00 0.0000000000000000e+00  0.0000000000000000e+00 0.0000000000000000e+00 0.0000000000000000e+00  0.0000000000000000e+00 0.0000000000000000e+00 0.0000000000000000e+00  0.0000000000000000e+00 0.0000000000000000e+00 0.0000000000000000e+00  0.0000000000000000e+00 0.0000000000000000e+00 0.0000000000000000e+00  0.0000000000000000e+00 0.0000000000000000e+00 0.0000000000000000e+00  0.0000000000000000e+00 0.0000000000000000e+00 0.0000000000000000e+00  0.0000000000000000e+00 0.0000000000000000e+00 0.0000000000000000e+00  0.0000000000000000e+00 0.0000000000000000e+00 0.0000000000000000e+00  0.0000000000000000e+00 0.0000000000000000e+00 0.0000000000000000e+00  0.0000000000000000e+00 0.0000000000000000e+00 0.0000000000000000e+00  0.0000000000000000e+00 0.0000000000000000e+00 0.0000000000000000e+00  0.0000000000000000e+00 0.0000000000000000e+00 0.0000000000000000e+00  0.0000000000000000e+00 0.0000000000000000e+00 0.0000000000000000e+00  0.0000000000000000e+00 0.0000000000000000e+00 0.0000000000000000e+00  0.0000000000000000e+00 0.0000000000000000e+00 0.0000000000000000e+00  0.0000000000000000e+00 0.0000000000000000e+00 0.0000000000000000e+00  0.0000000000000000e+00 0.0000000000000000e+00 0.0000000000000000e+00  1.5264686108476734e-02 1.5030648595494923e-02 0.0000000000000000e+00  -1.5278102273581045e-02 -1.5096394262725243e-02 0.0000000000000000e+00  -1.5249273533338718e-02 1.5013899922953499e-02 0.0000000000000000e+00  1.4382489965168400e-02 -1.4413659519499914e-02 0.0000000000000000e+00  -1.1329194626204511e-02 1.1970235133001508e-02 0.0000000000000000e+00  1.4954867857080483e-02 1.5190223129029293e-02 0.0000000000000000e+00  -1.4962718788817919e-02 -1.5133451034785224e-02 0.0000000000000000e+00  1.5914807276083805e-02 -1.5418702595476673e-02 0.0000000000000000e+00  1.5415813393701346e-02 -1.5320874541349184e-02 0.0000000000000000e+00  6.0963352039936670e-03 6.1011862287279192e-03 0.0000000000000000e+00  0.0000000000000000e+00 0.0000000000000000e+00 0.0000000000000000e+00  0.0000000000000000e+00 0.0000000000000000e+00 0.0000000000000000e+00  0.0000000000000000e+00 0.0000000000000000e+00 0.0000000000000000e+00  0.0000000000000000e+00 0.0000000000000000e+00 0.0000000000000000e+00  -6.1311861661913656e-03 -6.0925189725621201e-03 0.0000000000000000e+00  -1.4151045538777895e-02 1.5500153097658202e-02 0.0000000000000000e+00  1.4183183830565918e-02 1.5526301974696949e-02 0.0000000000000000e+00  -1.5269124759222603e-02 -1.5441458222929824e-02 0.0000000000000000e+00  0.0000000000000000e+00 0.0000000000000000e+00 0.0000000000000000e+00  0.0000000000000000e+00 0.0000000000000000e+00 0.0000000000000000e+00  1.3981855818286355e-02 1.1698092363931194e-02 0.0000000000000000e+00  0.0000000000000000e+00 0.0000000000000000e+00 0.0000000000000000e+00  0.0000000000000000e+00 0.0000000000000000e+00 0.0000000000000000e+00  0.0000000000000000e+00 0.0000000000000000e+00 0.0000000000000000e+00  -1.5071027995782030e-02 1.3815300573938238e-02 0.0000000000000000e+00  0.0000000000000000e+00 0.0000000000000000e+00 0.0000000000000000e+00  0.0000000000000000e+00 0.0000000000000000e+00 0.0000000000000000e+00  -6.9583488841392597e-03 6.9568201824812808e-03 0.0000000000000000e+00  -1.4752792558824192e-02 -1.2905304525842218e-02 0.0000000000000000e+00  0.0000000000000000e+00 0.0000000000000000e+00 0.0000000000000000e+00  6.5631407461816506e-03 -6.5704175618511015e-03 0.0000000000000000e+00  8.7575107097280797e-03 -9.5691933023120540e-03 0.0000000000000000e+00  -2.1379004198007114e-02 2.1260296274010406e-02 0.0000000000000000e+00  -1.0985834236305985e-02 -1.5094231614475109e-02 0.0000000000000000e+00  1.2600933789586351e-02 -1.4763010652109027e-02 0.0000000000000000e+00  -9.9578600595887322e-03 -1.0656586451620572e-02 0.0000000000000000e+00  9.9848512056590465e-03 1.0558252131424100e-02 0.0000000000000000e+00  0.0000000000000000e+00 0.0000000000000000e+00 0.0000000000000000e+00  1.3829029730538352e-02 -9.3095137774896128e-03 0.0000000000000000e+00  -1.4214142906376933e-02 1.0156917160689366e-02 0.0000000000000000e+00  2.2696785959364103e-02 -2.2812916422898587e-02 0.0000000000000000e+00  -9.4929450255050781e-03 1.3576256672606408e-02 0.0000000000000000e+00  0.0000000000000000e+00 0.0000000000000000e+00 0.0000000000000000e+00  9.2389811771838477e-03 1.3749261286280822e-02 0.0000000000000000e+00  2.0259260421599139e-02 2.0553546037675518e-02 0.0000000000000000e+00  -1.1929885913438536e-02 1.1338678523204032e-02 0.0000000000000000e+00  9.5239872037075467e-03 -8.7154941461147287e-03 0.0000000000000000e+00  0.0000000000000000e+00 0.0000000000000000e+00 0.0000000000000000e+00  0.0000000000000000e+00 0.0000000000000000e+00 0.0000000000000000e+00  0.0000000000000000e+00 0.0000000000000000e+00 0.0000000000000000e+00  0.0000000000000000e+00 0.0000000000000000e+00 0.0000000000000000e+00  1.0890221018040790e-02 1.0246628570161192e-02 0.0000000000000000e+00  -1.4836262984426488e-02 -9.1752637182065892e-03 0.0000000000000000e+00  -2.1216676978245277e-02 2.1431838807844762e-02 0.0000000000000000e+00  -9.9620490160715076e-03 -9.1774688568393575e-03 0.0000000000000000e+00  0.0000000000000000e+00 0.0000000000000000e+00 0.0000000000000000e+00  0.0000000000000000e+00 0.0000000000000000e+00 0.0000000000000000e+00  0.0000000000000000e+00 0.0000000000000000e+00 0.0000000000000000e+00  0.0000000000000000e+00 0.0000000000000000e+00 0.0000000000000000e+00  0.0000000000000000e+00 0.0000000000000000e+00 0.0000000000000000e+00  0.0000000000000000e+00 0.0000000000000000e+00 0.0000000000000000e+00  0.0000000000000000e+00 0.0000000000000000e+00 0.0000000000000000e+00  0.0000000000000000e+00 0.0000000000000000e+00 0.0000000000000000e+00  0.0000000000000000e+00 0.0000000000000000e+00 0.0000000000000000e+00  0.0000000000000000e+00 0.0000000000000000e+00 0.0000000000000000e+00  0.0000000000000000e+00 0.0000000000000000e+00 0.0000000000000000e+00  0.0000000000000000e+00 0.0000000000000000e+00 0.0000000000000000e+00  0.0000000000000000e+00 0.0000000000000000e+00 0.0000000000000000e+00  0.0000000000000000e+00 0.0000000000000000e+00 0.0000000000000000e+00  -2.3449246875496932e-02 -2.3512609249795556e-02 0.0000000000000000e+00  2.2127397066964039e-02 2.2041636777114418e-02 0.0000000000000000e+00  -8.6056684153515695e-03 7.8088970461223641e-03 0.0000000000000000e+00  2.2819391204276944e-02 -2.2503326901678600e-02 0.0000000000000000e+00  8.8997314902768011e-03 -1.4012114048917649e-02 0.0000000000000000e+00  -1.4233657128005690e-02 5.3487079613259029e-03 0.0000000000000000e+00  1.4261952582743837e-02 -5.2924182746183004e-03 0.0000000000000000e+00  1.3319023832325772e-02 5.4847288400399329e-03 0.0000000000000000e+00  -5.2773929658187701e-03 1.2934135105236198e-02 0.0000000000000000e+00  -7.1476270483774576e-03 -1.4646076128437947e-02 0.0000000000000000e+00  5.6826303020418995e-03 1.3342470044846405e-02 0.0000000000000000e+00  1.0455594205992985e-02 -9.2552820312210345e-03 0.0000000000000000e+00  -1.3196037738148746e-02 -1.8362997020164942e-03 0.0000000000000000e+00  1.3192252783834216e-02 1.8097374441500319e-03 0.0000000000000000e+00  2.1226044888544592e-02 1.9590151624026005e-02 0.0000000000000000e+00  8.9345420818971663e-03 8.2718920419274002e-03 0.0000000000000000e+00  -1.2968847871878880e-02 -4.9785436100768096e-03 0.0000000000000000e+00  -1.8388931042507582e-02 -2.1108340094235300e-02 0.0000000000000000e+00  -9.2397605851716226e-03 -1.0021403664592154e-02 0.0000000000000000e+00  1.1618267463641000e-02 7.5952679523346349e-03 0.0000000000000000e+00  -7.3183989836569660e-03 8.1025528906510588e-03 0.0000000000000000e+00  5.1333497502137762e-03 -1.3154216483238597e-02 0.0000000000000000e+00  -2.3154507837160241e-03 1.3238357239009048e-02 0.0000000000000000e+00  1.6790033337989578e-03 1.2379420273167007e-02 0.0000000000000000e+00  1.9048836237859827e-03 -1.2764836153643684e-02 0.0000000000000000e+00  -1.6713814171299536e-03 -1.2396024372464025e-02 0.0000000000000000e+00  -2.2198489043926465e-02 -2.0683328289265328e-02 0.0000000000000000e+00  -2.2911085586978294e-02 -2.2651892054479105e-02 0.0000000000000000e+00  7.1150931277873999e-03 -7.5114643754426681e-03 0.0000000000000000e+00  -2.3215196360615552e-02 -2.4233834262737796e-02 0.0000000000000000e+00  2.3093631286815911e-02 -2.3878751169179403e-02 0.0000000000000000e+00  7.0570964781366367e-03 7.4374795953172671e-03 0.0000000000000000e+00  -9.0015414779628829e-03 -9.0808758504862686e-03 0.0000000000000000e+00  -1.3628080513156190e-02 1.6290636194990090e-03 0.0000000000000000e+00  1.3652055621699957e-02 -1.6133559157110531e-03 0.0000000000000000e+00  -9.5521222774544844e-03 -9.0093025190593097e-03 0.0000000000000000e+00  -2.2359756504917536e-02 2.1257356059433109e-02 0.0000000000000000e+00  2.0767147450136556e-02 -1.6580355486938057e-02 0.0000000000000000e+00  -7.2132008694064725e-03 -6.8026045247515342e-03 0.0000000000000000e+00  1.5134982201501054e-02 -1.5537563717079152e-02 0.0000000000000000e+00  1.5763712449720024e-02 -1.5366418952499955e-02 0.0000000000000000e+00  7.3203251983630750e-03 -6.9293748716738792e-03 0.0000000000000000e+00  -1.6350179633874581e-02 -1.6622543293710136e-02 0.0000000000000000e+00  -1.3372598773756610e-02 1.3836994563314541e-02 0.0000000000000000e+00  -8.0461368172180386e-03 8.2855169930664118e-03 0.0000000000000000e+00  -7.6004746054543484e-03 -8.3388056836042630e-03 0.0000000000000000e+00  8.4877453371073695e-03 8.2620678502140985e-03 0.0000000000000000e+00  2.0107851249234955e-02 -2.2299309005364011e-02 0.0000000000000000e+00  -1.8114169119608801e-02 -1.7941542708827109e-02 0.0000000000000000e+00  -6.3150835249335263e-03 6.9535903027743498e-03 0.0000000000000000e+00  6.3153041517815143e-03 6.9487435033774624e-03 0.0000000000000000e+00  -8.0204515346004607e-03 7.8534200244682051e-03 0.0000000000000000e+00  -4.6788155480381906e-03 4.0825720688127277e-03 0.0000000000000000e+00  4.8465338737544647e-03 5.5660332934384313e-03 0.0000000000000000e+00  1.5811153475554517e-02 1.6142804117285133e-02 0.0000000000000000e+00  -8.4738795801820796e-03 7.2676035557590092e-03 0.0000000000000000e+00  2.3407189390656957e-02 -2.1142465707064947e-02 0.0000000000000000e+00  -3.6105069379029917e-03 4.1705831614361390e-03 0.0000000000000000e+00  2.6140433586542978e-02 2.6285532621321394e-02 0.0000000000000000e+00  5.3855633286729486e-03 -6.0772132189508953e-03 0.0000000000000000e+00  4.1630660063575178e-03 -3.6225961147975379e-03 0.0000000000000000e+00  5.3074635502266031e-03 4.5727830488497805e-03 0.0000000000000000e+00  -2.2382807137649872e-02 1.7509595869772427e-02 0.0000000000000000e+00  -2.6232290859166840e-02 2.6405441644852343e-02 0.0000000000000000e+00  4.4108190307341495e-03 3.8510333451315785e-03 0.0000000000000000e+00  3.5246690524319176e-03 4.0398174534883946e-03 0.0000000000000000e+00  -4.6976120198069576e-03 -4.1422641817294775e-03 0.0000000000000000e+00  -3.4841388016658430e-03 -4.0375260306481850e-03 0.0000000000000000e+00  1.0385426784471042e-02 1.0432740615155055e-02 0.0000000000000000e+00  -2.6061595285944692e-03 -2.6001874233705963e-03 0.0000000000000000e+00  0.0000000000000000e+00 0.0000000000000000e+00 0.0000000000000000e+00  0.0000000000000000e+00 0.0000000000000000e+00 0.0000000000000000e+00  2.8268081087938299e-03 -2.8160936339475611e-03 0.0000000000000000e+00  -3.0832698912260726e-03 3.0818140388588731e-03 0.0000000000000000e+00  -2.0505719726357591e-02 -1.5249048274241219e-02 0.0000000000000000e+00  1.8550180415566258e-02 -1.8695361241409872e-02 0.0000000000000000e+00  2.1871058094505492e-02 2.1306035805104748e-02 0.0000000000000000e+00  1.2981105081265239e-02 1.2437079545218959e-02 0.0000000000000000e+00  0.0000000000000000e+00 0.0000000000000000e+00 0.0000000000000000e+00  7.5251797592957356e-03 -7.8391207510780068e-03 0.0000000000000000e+00  1.0067233680941756e-02 -1.0436412626852602e-02 0.0000000000000000e+00  -1.6302705887031900e-02 2.0679686813871574e-02 0.0000000000000000e+00  -2.1453477529946825e-02 2.2977719932406219e-02 0.0000000000000000e+00  1.5916282283254504e-02 2.0308051830692574e-02 0.0000000000000000e+00  2.1337371028563198e-02 2.3108623662267059e-02 0.0000000000000000e+00  -1.8612766730096712e-02 1.0011023080170140e-02 0.0000000000000000e+00  -2.0425695450744418e-02 2.0425307291578564e-02 0.0000000000000000e+00  0.0000000000000000e+00 0.0000000000000000e+00 0.0000000000000000e+00  2.2604486142143620e-02 1.8441109608692573e-02 0.0000000000000000e+00  -5.2745024821282734e-03 -8.2924306597737529e-03 0.0000000000000000e+00  2.0365292552200834e-02 2.0340857566025963e-02 0.0000000000000000e+00  -1.5093671241906269e-02 1.5003820277677672e-02 0.0000000000000000e+00  -6.3559058793123662e-03 -5.8811208754051356e-03 0.0000000000000000e+00  -9.8599358357242400e-03 -7.6878348545177935e-03 0.0000000000000000e+00  1.5487157015275855e-02 -2.2679098415311603e-02 0.0000000000000000e+00  1.4602300582795137e-02 1.4536519533023456e-02 0.0000000000000000e+00  2.8060315585207774e-03 2.7895714486507036e-03 0.0000000000000000e+00  -5.2284419499682806e-03 -1.7305191221953748e-02 0.0000000000000000e+00  8.4384838760023645e-03 -7.8820031448749040e-03 0.0000000000000000e+00  2.1454417479969446e-02 1.2405124884765587e-02 0.0000000000000000e+00  -5.4212020698425961e-03 6.1112148005486606e-03 0.0000000000000000e+00  -1.1040518943068860e-02 1.1058436026857120e-02 0.0000000000000000e+00  -1.5886028155714441e-02 1.6187648219930115e-02 0.0000000000000000e+00  -5.0294674268169864e-03 -5.7681500481749099e-03 0.0000000000000000e+00  0.0000000000000000e+00 0.0000000000000000e+00 0.0000000000000000e+00  -6.4598688230868345e-03 5.7421667198891821e-03 0.0000000000000000e+00  8.5977195127837452e-05 -1.9134043200958347e-02 0.0000000000000000e+00  -1.9910139610670329e-05 1.9534315864503514e-02 0.0000000000000000e+00  -9.7619117907802276e-03 -9.9048944049251620e-03 0.0000000000000000e+00  -2.7131464313578543e-02 2.6432674957547333e-02 0.0000000000000000e+00  9.3429156221588611e-03 1.0064564703019183e-02 0.0000000000000000e+00  0.0000000000000000e+00 0.0000000000000000e+00 0.0000000000000000e+00  -5.7560066283348322e-03 -5.0095115256835205e-03 0.0000000000000000e+00  1.9100551254688375e-02 -9.8955425932873934e-03 0.0000000000000000e+00  9.2974227383959811e-03 -5.0988535752935519e-03 0.0000000000000000e+00  1.0178474793989225e-02 -2.0509229662601471e-02 0.0000000000000000e+00  0.0000000000000000e+00 0.0000000000000000e+00 0.0000000000000000e+00  7.2836854689057751e-03 6.7904381728449963e-03 0.0000000000000000e+00  0.0000000000000000e+00 0.0000000000000000e+00 0.0000000000000000e+00  -8.9689030391125069e-03 5.3924388486650977e-03 0.0000000000000000e+00  2.7102022014725814e-02 2.6538041568204693e-02 0.0000000000000000e+00  6.2385469273365853e-03 -7.3070980319556071e-03 0.0000000000000000e+00  1.4397361809092010e-02 -1.5270226585519390e-02 0.0000000000000000e+00  5.1069464689437434e-03 1.8846609295140263e-02 0.0000000000000000e+00  -1.0406401324379377e-02 1.9157829187016476e-02 0.0000000000000000e+00  -2.2386044841453453e-02 -1.9056150817017802e-02 0.0000000000000000e+00  0.0000000000000000e+00 0.0000000000000000e+00 0.0000000000000000e+00  -2.2237425550962055e-02 1.9696369556013907e-02 0.0000000000000000e+00  0.0000000000000000e+00 0.0000000000000000e+00 0.0000000000000000e+00  0.0000000000000000e+00 0.0000000000000000e+00 0.0000000000000000e+00  -1.5564117987696285e-02 