<?xml version="1.0"?>
<VTKFile type="UnstructuredGrid"  version="0.1"  >
<UnstructuredGrid>
<Piece  NumberOfPoints="1109" NumberOfCells="1972">
<Points>
<DataArray  type="Float64"  NumberOfComponents="3"  format="ascii">0 1 0  0 0 0  1 0 0  1 1 0  0.8968458805257912 0.5501332934257217 0  0.9 0.5 0  0.8968458805257911 0.4498667065742781 0  0.8874332644514524 0.4005240451340579 0  0.8719105943553006 0.3527501789261288 0  0.8505226720175453 0.3072985303593135 0  0.823606797749979 0.2648858990830106 0  0.7915874509685645 0.2261811576285244 0  0.7549695958994758 0.1917947028896841 0  0.7143307179915988 0.162268829799194 0  0.6703117166260287 0.138069179013592 0  0.6236067977499788 0.1195773934819385 0  0.5749525258342897 0.1070850997085245 0  0.5251162078117251 0.1007893086286913 0  0.4748837921882747 0.1007893086286913 0  0.4250474741657101 0.1070850997085245 0  0.376393202250021 0.1195773934819386 0  0.3296882833739712 0.1380691790135921 0  0.2856692820084015 0.1622688297991939 0  0.2450304041005242 0.1917947028896843 0  0.2084125490314353 0.2261811576285246 0  0.1763932022500209 0.2648858990830109 0  0.1494773279824546 0.3072985303593139 0  0.1280894056446994 0.3527501789261288 0  0.1125667355485475 0.4005240451340581 0  0.1031541194742088 0.4498667065742783 0  0.09999999999999998 0.5 0  0.1031541194742089 0.5501332934257218 0  0.1125667355485476 0.5994759548659421 0  0.1280894056446995 0.6472498210738713 0  0.1494773279824546 0.6927014696406861 0  0.176393202250021 0.7351141009169893 0  0.2084125490314355 0.7738188423714756 0  0.2450304041005241 0.8082052971103157 0  0.2856692820084012 0.837731170200806 0  0.3296882833739709 0.8619308209864078 0  0.3763932022500212 0.8804226065180615 0  0.4250474741657101 0.8929149002914756 0  0.4748837921882746 0.8992106913713087 0  0.5251162078117254 0.8992106913713087 0  0.5749525258342899 0.8929149002914755 0  0.623606797749979 0.8804226065180614 0  0.6703117166260291 0.8619308209864078 0  0.7143307179915986 0.8377311702008061 0  0.754969595899476 0.8082052971103157 0  0.7915874509685646 0.7738188423714755 0  0.823606797749979 0.7351141009169893 0  0.8505226720175454 0.6927014696406861 0  0.8719105943553006 0.6472498210738712 0  0.8874332644514524 0.599475954865942 0  0.5 0 0  0.5 1 0  0 0.5 0  1 0.5 0  0.25 0 0  0.75 0 0  0.75 1 0  0.25 1 0  0 0.75 0  0 0.25 0  1 0.25 0  1 0.75 0  0.375 0 0  0.625 0 0  0.625 1 0  0.375 1 0  0 0.625 0  0 0.375 0  1 0.375 0  1 0.625 0  0.125 0 0  0.875 0 0  0 0.875 0  0.125 1 0  0.875 1 0  0 0.125 0  1 0.125 0  1 0.875 0  0.1443946775413214 0.1213187937376868 0  0.8556053224586788 0.8786812062623132 0  0.8556053224586785 0.1213187937376867 0  0.1275360334547992 0.8724639665452008 0  0.9261623581710797 0.1875 0  0.09234641934319709 0.2082689144241477 0  0.9076535806568029 0.7917310855758523 0  0.08970099689351971 0.7603836651344988 0  0.2182130526099624 0.9079579669686324 0  0.07086411995581518 0.07086411995581518 0  0.0625 1 0  0 0.9375 0  1 0.0625 0  0.9375 0 0  0.9291358800441849 0.9291358800441849 0  0.7304772975931939 0.08076335202639119 0  0.2695227024068061 0.08076335202639115 0  0.7697819974699807 0.9105968468121929 0  1 0.6875 0  1 0.3125 0  0.06784168511078095 0.2966417331842567 0  0 0.6875 0  0.1875 0 0  0.8125 0 0  0.9212459744619301 0.2681742056774029 0  0.3125 1 0  0.6875 1 0  0.922097136530977 0.07790286346902295 0  0.9261304603587264 0.7150772115644075 0  0 0.8125 0  0.07432186328509671 0.9256781367149033 0  0.06317182982585627 0.84375 0  0.8548473925302104 0.1928285354262928 0  0.2914274450692525 0.9272721924131209 0  0.6710199663399635 0.9319471281137308 0  0.9226595291420543 0.8597667107019437 0  0.0773404708579461 0.1402332892980563 0  0.8125 1 0  0.06054886616517211 0.65625 0  0.9362657027224049 0.3336129027547622 0  0.1841195715992005 0.8363784907223111 0  0.6625377124131507 0.06023416665880475 0  0.3125 0 0  0.34375 0.06016090820395464 0  0.2153846372786545 0.1270381302276244 0  0.8024953780019808 0.07187189600048093 0  0.1546395545758083 0.9367961467266345 0  0.5625 1 0  0.4375 0 0  0.4375 1 0  0.5625 0 0  0.1844766880788185 0.06724298999790632 0  0.9369725282473387 0.6419809811402504 0  0.791523351719164 0.1369023590147849 0  0.8285961364903059 0.9374018659319692 0  1 0.4375 0  0 0.4375 0  1 0.5625 0  0 0.5625 0  0 0.3125 0  1 0.8125 0  0.0625 0 0  0 0.0625 0  0 0.1875 0  1 0.1875 0  1 0.9375 0  0.9375 1 0  0.6875 0 0  0.1875 1 0  0.8126465958421825 0.8329348088176629 0  0.1550798535647612 0.1867680086445373 0  0.8631981559835366 0.06032295929500282 0  0.1449089435554358 0.7884432695884597 0  0.3538206140027237 0.9399564250283491 0  0.944997661525766 0.4151121561005554 0  0.05500233847423393 0.5848878438994446 0  0.0520912947951912 0.40625 0  0.59375 0.05063263303723638 0  0.6113142584645842 0.9411585052804305 0  0.402402637527157 0.05243074290023167 0  0.05237021982595785 0.7146869946988353 0  0.9514280734197595 0.53125 0  0.04857192658024048 0.46875 0  0.1138995451272664 0.2618291859344329 0  0.1276043399716366 0.06698080255494471 0  0.9496852823490703 0.5873315358652272 0  0.7164226875694513 0.8936714072472519 0  0.728445758907293 0.9483406189827143 0  0.05037626111865807 0.3500677784994627 0  0.9425695009311538 0.1320174568820216 0  0.4108317852857326 0.9488345682840208 0  0.5398628985995173 0.04893133705064829 0  0.46875 0.04573672429098317 0  0.4652931800096448 0.9529811055869081 0  0.53125 0.9542632757090168 0  0.8785971272885281 0.7441734326495726 0  0.8518416617605847 0.7931754903661554 0  0.04183404050302509 0.78125 0  0.7612395846848441 0.8595654412716175 0  0.2310588911243982 0.8579303197600836 0  0.04148050284378633 0.21875 0  0.9494864361787021 0.7612608042848362 0  0.9500000000000001 0.4721339993173143 0  0.04999999999999998 0.5278660006826856 0  0.8781553628189985 0.9246252444972441 0  0.8731991046476956 0.2435858407989878 0  0.09811738497342513 0.6912987895906199 0  0.78125 0.9600244726998853 0  0.09951704281279977 0.8094116423849811 0  0.1723930843372325 0.8914409560171174 0  0.21875 0.9592823984315264 0  0.8808053857873319 0.8333253975559158 0  0.8963977713581862 0.1485308906960134 0  0.9538351164349618 0.2296733193971382 0  0.9502525126806526 0.8180081280125184 0  0.2312490385075739 0.04727387874777968 0  0.2715914187620846 0.8835921407480765 0  0.8075381809024645 0.880775593205643 0  0.71875 0.03518728418751645 0  0.28125 0.03518728418751642 0  0.7646042202168328 0.04444036111707996 0  0.9023329991729737 0.03666350737326187 0  0.03401531498238862 0.15625 0  0.1188530488980251 0.1590855287670435 0  0.9585274478449393 0.2940602659505009 0  0.122777080947294 0.7293581095092172 0  0.9670375667902916 0.09375 0  0.2005134857209875 0.1810792546569654 0  0.04567406045797464 0.8878541658538743 0  0.09375 0.966869578205468 0  0.1562008719445321 0.03232788333739163 0  0.8953932105853648 0.3139420780646932 0  0.7990572522972532 0.1815363722387022 0  0.0968875242781685 0.03463409819727443 0  0.03223722036876893 0.09375 0  0.9004223587754672 0.9633108159792649 0  0.9677627796312311 0.90625 0  0.1015654613822437 0.1029847255361322 0  0.9612688796250578 0.9612688796250578 0  0 0.03125 0  0.03125 0 0  0.9558898336496962 0.04411016635030385 0  0.04144949962501476 0.9585505003749852 0  0.9068917513393455 0.6748714165270275 0  0.1368346895292699 0.830580202512584 0  0.1325215314767946 0.2232188145997174 0  0.07053058491102715 0.2523250971165124 0  0.28125 1 0  0.2618257196382527 0.9585732837283344 0  0.08628220552312613 0.8784418410901162 0  0.6885162251696433 0.09694521726220126 0  0.7451861497985837 0.1260293295250874 0  0.313422114933215 0.09491014745286984 0  0.2604190570795071 0.1249189143540631 0  0.9242490330121279 0.3761177923443456 0  0.8294827367589617 0.1534479284350518 0  0 0.28125 0  0.1085704015556412 0.3026527142683792 0  0.6454377779583714 0.9642341400769985 0  0.1735682150935896 0.1501527832362767 0  0.9118639212665761 0.2270478094042325 0  0.9675029085737417 0.7231519194735394 0  0.9540854621793986 0.6818714685662951 0  0.3411855214203015 0.9011195850022233 0  0.2203778463487443 0.08657146517086198 0  0.04103470738435357 0.04103470738435357 0  0.5692124642834736 0.9350661676969988 0  0.1143804055696223 0.9319617439078584 0  0.08871656954519293 0.3663659127109965 0  0.9630811790855398 0.168250321868886 0  0.8941478109554366 0.1077225817667272 0  0.7685953432959879 0.09339992494635127 0  0.9613334331586147 0.8673647296762501 0  0.84375 0 0  0.8276419188889859 0.03874003995670209 0  0.4987074584280061 0.9312004428379874 0  0.4999999999999999 0.07012294039149713 0  0.906353444207591 0.8962759602721756 0  0.8317000502825128 0.2255938539236174 0  0.060982293117454 0.1847248153131282 0  0.84375 1 0  0.8601163332513452 0.9625346208269469 0  0.07696867235812772 0.6190771663714262 0  0.03866375363197156 0.624370156890833 0  0.386395970129115 0.9182613855572013 0  0.59375 1 0  0.03763634871355165 0.2725691404761272 0  1 0.34375 0  0.9619513789393942 0.3638256452123659 0  0.1705891391383945 0.2215719862571997 0  0.2993345649440622 0.9643978827856838 0  0.2548390693531445 0.917543736811073 0  0.4376701674058487 0.06983678836603174 0  0.6249880952696493 0.07804203554412367 0  0.8891633930840495 0.7080603551933189 0  0 0.65625 0  0.8857454763750297 0.2783067670731572 0  1 0.65625 0  0 0.59375 0  0.9147359581367025 0.7498372322849914 0  0.34375 1 0  0.08128436453222096 0.3306040779845135 0  0.8370204413255111 0.08803482611562097 0  0.4399236117509409 0.9264634199869409 0  0.3763243110806382 0.08093997073896844 0  1 0.78125 0  0.3058827875685617 0.8943637152968825 0  0.891027260700638 0.1971556622156984 0  0.1814462944911871 0.9630031969500565 0  0.1812917788273262 0.1067749496803429 0  0.2291605611046911 0.1598957180171764 0  0.630525566101238 0.03837025329843378 0  0.03363261960646192 0.92260900189631 0  0.2960793559902691 0.1260912307633523 0  0.03663553287191564 0.8179172045954961 0  0.02996523389584273 0.8560987956667739 0  0.09880166525369549 0.8450583124835681 0  0.6923212173088138 0.150169004406393 0  0.502
[...]
<PointData  Vectors="u"> 
<DataArray  type="Float64"  Name="u"  NumberOfComponents="3" format="ascii">0.0000000000000000e+00 0.0000000000000000e+00 0.0000000000000000e+00  0.0000000000000000e+00 0.0000000000000000e+00 0.0000000000000000e+00  0.0000000000000000e+00 0.0000000000000000e+00 0.0000000000000000e+00  0.0000000000000000e+00 0.0000000000000000e+00 0.0000000000000000e+00  -5.1146012859577573e-02 -9.9738784281556431e-03 0.0000000000000000e+00  -5.0219380052883941e-02 -2.5218419451435602e-05 0.0000000000000000e+00  -5.1088282235246682e-02 9.9436808665043161e-03 0.0000000000000000e+00  -5.3190950256058744e-02 2.1105694572772889e-02 0.0000000000000000e+00  -5.5903495436729948e-02 3.3864184087403507e-02 0.0000000000000000e+00  -5.8736947627779458e-02 4.6957427294292017e-02 0.0000000000000000e+00  -6.1363563061485119e-02 5.7098095744653812e-02 0.0000000000000000e+00  -6.2588925042891763e-02 6.2096177943377226e-02 0.0000000000000000e+00  -6.0328066616275544e-02 6.2252068666168732e-02 0.0000000000000000e+00  -5.2644379669022308e-02 6.0085766700765972e-02 0.0000000000000000e+00  -4.0599770088719678e-02 5.7301505871295191e-02 0.0000000000000000e+00  -2.7405805594723023e-02 5.4505159220626320e-02 0.0000000000000000e+00  -1.5395878434419237e-02 5.1978949654761020e-02 0.0000000000000000e+00  -4.9708526891842509e-03 5.0530032339628363e-02 0.0000000000000000e+00  4.9983387066838136e-03 5.0501357677312460e-02 0.0000000000000000e+00  1.5394060421382479e-02 5.1980569234527332e-02 0.0000000000000000e+00  2.7401079124392110e-02 5.4487994723234220e-02 0.0000000000000000e+00  4.0516756134156701e-02 5.7364307846207364e-02 0.0000000000000000e+00  5.2664426930470770e-02 6.0075222653005717e-02 0.0000000000000000e+00  6.0358650107709071e-02 6.2187100067190929e-02 0.0000000000000000e+00  6.2576140393007768e-02 6.2060350871748056e-02 0.0000000000000000e+00  6.1236628170467600e-02 5.7131575232142115e-02 0.0000000000000000e+00  5.8764203393986560e-02 4.7061386332880623e-02 0.0000000000000000e+00  5.5956571623218508e-02 3.3927466079320248e-02 0.0000000000000000e+00  5.3171502756655512e-02 2.1053109761221274e-02 0.0000000000000000e+00  5.1114756436551639e-02 1.0004425004584276e-02 0.0000000000000000e+00  5.0248484454874225e-02 -8.6784732798803789e-05 0.0000000000000000e+00  5.1021156524146065e-02 -9.9978090310987571e-03 0.0000000000000000e+00  5.3173864071970910e-02 -2.1121204528826903e-02 0.0000000000000000e+00  5.5885473006241491e-02 -3.3900623007636174e-02 0.0000000000000000e+00  5.8712876048155137e-02 -4.6948008475448354e-02 0.0000000000000000e+00  6.1369698052796962e-02 -5.7044301093337239e-02 0.0000000000000000e+00  6.2313180213264978e-02 -6.1861916855033942e-02 0.0000000000000000e+00  6.0082750023729987e-02 -6.2222107108492665e-02 0.0000000000000000e+00  5.2717467493636413e-02 -6.0083070993187271e-02 0.0000000000000000e+00  4.0549188306281049e-02 -5.7283326717740647e-02 0.0000000000000000e+00  2.7429012460854101e-02 -5.4527311952446506e-02 0.0000000000000000e+00  1.5406200050707378e-02 -5.2044147654302583e-02 0.0000000000000000e+00  4.9697924223773161e-03 -5.0520925566900972e-02 0.0000000000000000e+00  -4.9917877649236367e-03 -5.0482072252514436e-02 0.0000000000000000e+00  -1.5390143626750183e-02 -5.1971606612070169e-02 0.0000000000000000e+00  -2.7339838705038897e-02 -5.4523544928439721e-02 0.0000000000000000e+00  -4.0557268741273300e-02 -5.7334859563395020e-02 0.0000000000000000e+00  -5.2591902065418097e-02 -5.9928362214838916e-02 0.0000000000000000e+00  -6.0099127808913952e-02 -6.2113841494272792e-02 0.0000000000000000e+00  -6.2605228265407070e-02 -6.1885561586799906e-02 0.0000000000000000e+00  -6.1173058026507153e-02 -5.6979471831572238e-02 0.0000000000000000e+00  -5.8656251516877811e-02 -4.6954307268828599e-02 0.0000000000000000e+00  -5.5868791467985859e-02 -3.3901176926498147e-02 0.0000000000000000e+00  -5.3192300926248028e-02 -2.1111424340286827e-02 0.0000000000000000e+00  0.0000000000000000e+00 0.0000000000000000e+00 0.0000000000000000e+00  0.0000000000000000e+00 0.0000000000000000e+00 0.0000000000000000e+00  0.0000000000000000e+00 0.0000000000000000e+00 0.0000000000000000e+00  0.0000000000000000e+00 0.0000000000000000e+00 0.0000000000000000e+00  0.0000000000000000e+00 0.0000000000000000e+00 0.0000000000000000e+00  0.0000000000000000e+00 0.0000000000000000e+00 0.0000000000000000e+00  0.0000000000000000e+00 0.0000000000000000e+00 0.0000000000000000e+00  0.0000000000000000e+00 0.0000000000000000e+00 0.0000000000000000e+00  0.0000000000000000e+00 0.0000000000000000e+00 0.0000000000000000e+00  0.0000000000000000e+00 0.0000000000000000e+00 0.0000000000000000e+00  0.0000000000000000e+00 0.0000000000000000e+00 0.0000000000000000e+00  0.0000000000000000e+00 0.0000000000000000e+00 0.0000000000000000e+00  0.0000000000000000e+00 0.0000000000000000e+00 0.0000000000000000e+00  0.0000000000000000e+00 0.0000000000000000e+00 0.0000000000000000e+00  0.0000000000000000e+00 0.0000000000000000e+00 0.0000000000000000e+00  0.0000000000000000e+00 0.0000000000000000e+00 0.0000000000000000e+00  0.0000000000000000e+00 0.0000000000000000e+00 0.0000000000000000e+00  0.0000000000000000e+00 0.0000000000000000e+00 0.0000000000000000e+00  0.0000000000000000e+00 0.0000000000000000e+00 0.0000000000000000e+00  0.0000000000000000e+00 0.0000000000000000e+00 0.0000000000000000e+00  0.0000000000000000e+00 0.0000000000000000e+00 0.0000000000000000e+00  0.0000000000000000e+00 0.0000000000000000e+00 0.0000000000000000e+00  0.0000000000000000e+00 0.0000000000000000e+00 0.0000000000000000e+00  0.0000000000000000e+00 0.0000000000000000e+00 0.0000000000000000e+00  0.0000000000000000e+00 0.0000000000000000e+00 0.0000000000000000e+00  0.0000000000000000e+00 0.0000000000000000e+00 0.0000000000000000e+00  0.0000000000000000e+00 0.0000000000000000e+00 0.0000000000000000e+00  0.0000000000000000e+00 0.0000000000000000e+00 0.0000000000000000e+00  2.9766927975805865e-02 2.9158716276155499e-02 0.0000000000000000e+00  -2.9795019561394843e-02 -2.9280762587073111e-02 0.0000000000000000e+00  -2.9736627389624831e-02 2.9125782970459434e-02 0.0000000000000000e+00  2.7997768849928731e-02 -2.8059102269032965e-02 0.0000000000000000e+00  -2.1618967357442561e-02 2.3093439005666457e-02 0.0000000000000000e+00  2.8559745331545393e-02 2.9205211409403933e-02 0.0000000000000000e+00  -2.8579099802869129e-02 -2.9083556013474177e-02 0.0000000000000000e+00  3.0233915186556465e-02 -2.9145204577831155e-02 0.0000000000000000e+00  2.9485477756982473e-02 -2.9210774885110469e-02 0.0000000000000000e+00  1.1913149777331874e-02 1.1931815649049417e-02 0.0000000000000000e+00  0.0000000000000000e+00 0.0000000000000000e+00 0.0000000000000000e+00  0.0000000000000000e+00 0.0000000000000000e+00 0.0000000000000000e+00  0.0000000000000000e+00 0.0000000000000000e+00 0.0000000000000000e+00  0.0000000000000000e+00 0.0000000000000000e+00 0.0000000000000000e+00  -1.1975577265757931e-02 -1.1902350982629028e-02 0.0000000000000000e+00  -2.6122669341634683e-02 2.9263497871494015e-02 0.0000000000000000e+00  2.6191639898309350e-02 2.9305980062247956e-02 0.0000000000000000e+00  -2.9012218319680951e-02 -2.9364556038922896e-02 0.0000000000000000e+00  0.0000000000000000e+00 0.0000000000000000e+00 0.0000000000000000e+00  0.0000000000000000e+00 0.0000000000000000e+00 0.0000000000000000e+00  2.6231495490855652e-02 2.0975271958583445e-02 0.0000000000000000e+00  0.0000000000000000e+00 0.0000000000000000e+00 0.0000000000000000e+00  0.0000000000000000e+00 0.0000000000000000e+00 0.0000000000000000e+00  0.0000000000000000e+00 0.0000000000000000e+00 0.0000000000000000e+00  -2.8448513381595410e-02 2.5494562519348642e-02 0.0000000000000000e+00  0.0000000000000000e+00 0.0000000000000000e+00 0.0000000000000000e+00  0.0000000000000000e+00 0.0000000000000000e+00 0.0000000000000000e+00  -1.3588221972950209e-02 1.3584197331887399e-02 0.0000000000000000e+00  -2.7745217268857560e-02 -2.3440755567129636e-02 0.0000000000000000e+00  0.0000000000000000e+00 0.0000000000000000e+00 0.0000000000000000e+00  1.2822586435343090e-02 -1.2838651105501170e-02 0.0000000000000000e+00  1.6724929835862577e-02 -1.8616688328920390e-02 0.0000000000000000e+00  -4.1302692588250103e-02 4.1300631690063108e-02 0.0000000000000000e+00  2.2743393653955869e-02 -2.7727606822705312e-02 0.0000000000000000e+00  -1.9117954708759002e-02 -2.8073695065880668e-02 0.0000000000000000e+00  -1.9148481871566505e-02 -2.0821598200990984e-02 0.0000000000000000e+00  1.9220334257050789e-02 2.0651416595716589e-02 0.0000000000000000e+00  0.0000000000000000e+00 0.0000000000000000e+00 0.0000000000000000e+00  2.5626328039453482e-02 -1.5912994233863186e-02 0.0000000000000000e+00  -2.6424278916976872e-02 1.7574747459149446e-02 0.0000000000000000e+00  4.4115320070761861e-02 -4.4224050093094922e-02 0.0000000000000000e+00  -1.6327900626728134e-02 2.5200412392149887e-02 0.0000000000000000e+00  0.0000000000000000e+00 0.0000000000000000e+00 0.0000000000000000e+00  1.5820872821474263e-02 2.5469768868205876e-02 0.0000000000000000e+00  3.9114381231567900e-02 3.9432346558749873e-02 0.0000000000000000e+00  -2.2888893055883708e-02 2.1609877612631435e-02 0.0000000000000000e+00  1.8531829071709936e-02 -1.6650495980529423e-02 0.0000000000000000e+00  0.0000000000000000e+00 0.0000000000000000e+00 0.0000000000000000e+00  0.0000000000000000e+00 0.0000000000000000e+00 0.0000000000000000e+00  0.0000000000000000e+00 0.0000000000000000e+00 0.0000000000000000e+00  0.0000000000000000e+00 0.0000000000000000e+00 0.0000000000000000e+00  2.1015204854248366e-02 1.9546695440283816e-02 0.0000000000000000e+00  -2.7355353461514804e-02 -1.5470703465883360e-02 0.0000000000000000e+00  -4.1076083698432311e-02 4.1246815534868246e-02 0.0000000000000000e+00  -1.9284312992384985e-02 -1.7502604700103390e-02 0.0000000000000000e+00  0.0000000000000000e+00 0.0000000000000000e+00 0.0000000000000000e+00  0.0000000000000000e+00 0.0000000000000000e+00 0.0000000000000000e+00  0.0000000000000000e+00 0.0000000000000000e+00 0.0000000000000000e+00  0.0000000000000000e+00 0.0000000000000000e+00 0.0000000000000000e+00  0.0000000000000000e+00 0.0000000000000000e+00 0.0000000000000000e+00  0.0000000000000000e+00 0.0000000000000000e+00 0.0000000000000000e+00  0.0000000000000000e+00 0.0000000000000000e+00 0.0000000000000000e+00  0.0000000000000000e+00 0.0000000000000000e+00 0.0000000000000000e+00  0.0000000000000000e+00 0.0000000000000000e+00 0.0000000000000000e+00  0.0000000000000000e+00 0.0000000000000000e+00 0.0000000000000000e+00  0.0000000000000000e+00 0.0000000000000000e+00 0.0000000000000000e+00  0.0000000000000000e+00 0.0000000000000000e+00 0.0000000000000000e+00  0.0000000000000000e+00 0.0000000000000000e+00 0.0000000000000000e+00  0.0000000000000000e+00 0.0000000000000000e+00 0.0000000000000000e+00  -4.5575536396063217e-02 -4.5582261428022693e-02 0.0000000000000000e+00  4.2853013192444070e-02 4.2869949561815231e-02 0.0000000000000000e+00  -1.6827824085034762e-02 1.4940404670071355e-02 0.0000000000000000e+00  4.3935146957024607e-02 -4.3592058088916433e-02 0.0000000000000000e+00  1.5062994069087293e-02 -2.5878068901787010e-02 0.0000000000000000e+00  -2.5769745860266039e-02 8.5848974049630364e-03 0.0000000000000000e+00  2.5805859079920727e-02 -8.5034112379724688e-03 0.0000000000000000e+00  2.4182103982751200e-02 8.8737404112929057e-03 0.0000000000000000e+00  -8.5364122867237265e-03 2.3499534931199811e-02 0.0000000000000000e+00  -1.1723070817970978e-02 -2.6734921248835308e-02 0.0000000000000000e+00  9.2024587105193796e-03 2.4250014095888842e-02 0.0000000000000000e+00  1.9666738588619701e-02 -1.6626035959205494e-02 0.0000000000000000e+00  -2.3610733727256354e-02 -2.8718458589883878e-03 0.0000000000000000e+00  2.3613611338307049e-02 2.8325128438926568e-03 0.0000000000000000e+00  4.0237770112157754e-02 3.6816131184956767e-02 0.0000000000000000e+00  1.7507654501637292e-02 1.5893041212737987e-02 0.0000000000000000e+00  -2.3508050604297923e-02 -7.9757159557660509e-03 0.0000000000000000e+00  -3.3965722015297496e-02 -3.9777828537142186e-02 0.0000000000000000e+00  -1.6770060709094804e-02 -1.8890868610207435e-02 0.0000000000000000e+00  2.1511915747206786e-02 1.2823183304625526e-02 0.0000000000000000e+00  -1.3984030158944318e-02 1.5861532380256126e-02 0.0000000000000000e+00  8.2524437024196710e-03 -2.3857535078460980e-02 0.0000000000000000e+00  -3.6604584183718290e-03 2.3715555809072357e-02 0.0000000000000000e+00  2.6156501106099879e-03 2.2183281636054257e-02 0.0000000000000000e+00  2.9885796894196163e-03 -2.2850582805187369e-02 0.0000000000000000e+00  -2.6323799783938102e-03 -2.2194298672355599e-02 0.0000000000000000e+00  -4.2194516149833876e-02 -3.9147613850078658e-02 0.0000000000000000e+00  -4.4171541721439986e-02 -4.3906659121333722e-02 0.0000000000000000e+00  1.3470569121198836e-02 -1.4098535192075117e-02 0.0000000000000000e+00  -4.4542699968211988e-02 -4.6367852065203226e-02 0.0000000000000000e+00  4.4455982719454702e-02 -4.5776047766167123e-02 0.0000000000000000e+00  1.3372803491555365e-02 1.3960904188662405e-02 0.0000000000000000e+00  -1.7031810385750756e-02 -1.6881139880464437e-02 0.0000000000000000e+00  -2.4372711088882722e-02 2.5547535239671404e-03 0.0000000000000000e+00  2.4396240179654832e-02 -2.5203958471599962e-03 0.0000000000000000e+00  -1.8725992550655501e-02 -1.7371433743809554e-02 0.0000000000000000e+00  -4.2658461143287994e-02 4.0568443283581265e-02 0.0000000000000000e+00  3.8853513986594777e-02 -2.9802583338268393e-02 0.0000000000000000e+00  -1.3512071135625983e-02 -1.2876623938973777e-02 0.0000000000000000e+00  2.9017067524216282e-02 -3.0087471697227478e-02 0.0000000000000000e+00  3.0685768741197609e-02 -2.9594779202778594e-02 0.0000000000000000e+00  1.3721653443615483e-02 -1.3123221567219146e-02 0.0000000000000000e+00  -3.1579247565973634e-02 -3.2380492655596477e-02 0.0000000000000000e+00  -2.5831328599279085e-02 2.7016721411059930e-02 0.0000000000000000e+00  -1.5230686923809206e-02 1.5480756160860195e-02 0.0000000000000000e+00  -1.4444041211071776e-02 -1.6000018938666698e-02 0.0000000000000000e+00  1.5845513597440627e-02 1.5649275437771736e-02 0.0000000000000000e+00  3.7582107022032012e-02 -4.2194249446525542e-02 0.0000000000000000e+00  -3.5125679273300188e-02 -3.4514127706410193e-02 0.0000000000000000e+00  -1.1275719519603631e-02 1.3092985393432670e-02 0.0000000000000000e+00  1.1267698503699880e-02 1.3085652035031368e-02 0.0000000000000000e+00  -1.4903638749328438e-02 1.4872966649123388e-02 0.0000000000000000e+00  -9.2147099909860846e-03 7.7928275756709653e-03 0.0000000000000000e+00  9.1766972152944534e-03 1.0771633863172553e-02 0.0000000000000000e+00  3.0595349791939803e-02 3.1493547963740050e-02 0.0000000000000000e+00  -1.5917563673099402e-02 1.2884923155408011e-02 0.0000000000000000e+00  4.4328763997186417e-02 -3.9614323179779393e-02 0.0000000000000000e+00  -6.8835601904803419e-03 8.2233710805454784e-03 0.0000000000000000e+00  5.0730796875969882e-02 5.0917217513906689e-02 0.0000000000000000e+00  1.0284432923539647e-02 -1.1945026241009645e-02 0.0000000000000000e+00  8.2038378336272786e-03 -6.9068224411633870e-03 0.0000000000000000e+00  1.0242301449612209e-02 8.6588932565208800e-03 0.0000000000000000e+00  -4.1833754094610071e-02 3.1402152303215525e-02 0.0000000000000000e+00  -5.0899976503313953e-02 5.1158577207412660e-02 0.0000000000000000e+00  8.6919280734253958e-03 7.3450634638565380e-03 0.0000000000000000e+00  6.7257154367368873e-03 7.9681288875093643e-03 0.0000000000000000e+00  -9.2450974635832593e-03 -7.9019942738190636e-03 0.0000000000000000e+00  -6.6509704870051740e-03 -7.9347203071337725e-03 0.0000000000000000e+00  2.0243531854425935e-02 2.0352157894460477e-02 0.0000000000000000e+00  -5.1170451437011332e-03 -5.1079644498336031e-03 0.0000000000000000e+00  0.0000000000000000e+00 0.0000000000000000e+00 0.0000000000000000e+00  0.0000000000000000e+00 0.0000000000000000e+00 0.0000000000000000e+00  -6.0466507693412658e-03 6.0383331690063782e-03 0.0000000000000000e+00  5.5540719739532981e-03 -5.5174342307352346e-03 0.0000000000000000e+00  -3.8181120465886183e-02 -2.6944051474279997e-02 0.0000000000000000e+00  3.5925073271580572e-02 -3.6389044698490601e-02 0.0000000000000000e+00  4.1946393635462542e-02 4.1068537684182428e-02 0.0000000000000000e+00  2.4564467887059824e-02 2.3150646624229151e-02 0.0000000000000000e+00  0.0000000000000000e+00 0.0000000000000000e+00 0.0000000000000000e+00  1.3684744091581451e-02 -1.4791086830439009e-02 0.0000000000000000e+00  1.9472253681638511e-02 -2.0422156452369705e-02 0.0000000000000000e+00  -2.9222901729097174e-02 3.8657216246711319e-02 0.0000000000000000e+00  -4.0680749283462658e-02 4.3718098762170289e-02 0.0000000000000000e+00  2.8457879710404008e-02 3.7941029207899851e-02 0.0000000000000000e+00  4.0340354332470588e-02 4.3898126848089851e-02 0.0000000000000000e+00  -3.4037345135091428e-02 1.6708930744771540e-02 0.0000000000000000e+00  -3.9713670823908684e-02 3.9620396917558420e-02 0.0000000000000000e+00  0.0000000000000000e+00 0.0000000000000000e+00 0.0000000000000000e+00  4.2401232651152983e-02 3.3552223590097588e-02 0.0000000000000000e+00  -8.8051272969680294e-03 -1.5349033791681078e-02 0.0000000000000000e+00  3.9614454567892525e-02 3.9430020664592454e-02 0.0000000000000000e+00  -2.8723925765139414e-02 2.8561451529054902e-02 0.0000000000000000e+00  -1.1979314506068909e-02 -1.0515445214798263e-02 0.0000000000000000e+00  -1.8424952512868551e-02 -1.3355074628140029e-02 0.0000000000000000e+00  2.6919129971316208e-02 -4.1971145041507035e-02 0.0000000000000000e+00  2.7887115454738560e-02 2.7690128121096950e-02 0.0000000000000000e+00  5.5045833034897814e-03 5.4796758191409554e-03 0.0000000000000000e+00  -8.3544064402468841e-03 -3.1091412216720671e-02 0.0000000000000000e+00  1.6547110682044397e-02 -1.5188473565726045e-02 0.0000000000000000e+00  3.9335931399280578e-02 2.0986723591283521e-02 0.0000000000000000e+00  -1.0278012215444528e-02 1.1781758072375472e-02 0.0000000000000000e+00  -2.1509608347918450e-02 2.1559462947734649e-02 0.0000000000000000e+00  -3.0231934224452323e-02 3.0801708225244473e-02 0.0000000000000000e+00  -9.5503632307366599e-03 -1.1261341210137199e-02 0.0000000000000000e+00  0.0000000000000000e+00 0.0000000000000000e+00 0.0000000000000000e+00  -1.2415719085349417e-02 1.0904932760875232e-02 0.0000000000000000e+00  1.6130608434150381e-04 -3.3986775978814734e-02 0.0000000000000000e+00  -9.1353961438512612e-07 3.4680528633994720e-02 0.0000000000000000e+00  -1.8990304710735401e-02 -1.9339318783608155e-02 0.0000000000000000e+00  -5.2291258761630884e-02 5.1098437900077572e-02 0.0000000000000000e+00  1.7791733974487675e-02 1.9376357912207688e-02 0.0000000000000000e+00  0.0000000000000000e+00 0.0000000000000000e+00 0.0000000000000000e+00  -1.1200399932394451e-02 -9.5054579330821291e-03 0.0000000000000000e+00  3.4864904013846211e-02 -1.6470495371760520e-02 0.0000000000000000e+00  1.7106164927135376e-02 -8.3893420157754219e-03 0.0000000000000000e+00  1.6896423016170888e-02 -3.7345418522433858e-02 0.0000000000000000e+00  0.0000000000000000e+00 0.0000000000000000e+00 0.0000000000000000e+00  1.3730441018352310e-02 1.2227465756378418e-02 0.0000000000000000e+00  0.0000000000000000e+00 0.0000000000000000e+00 0.0000000000000000e+00  -1.6558723655285039e-02 8.9285311261585541e-03 0.0000000000000000e+00  5.2296927539094137e-02 5.1400047137730977e-02 0.0000000000000000e+00  1.0954942481973862e-02 -1.3714063373911270e-02 0.0000000000000000e+00  2.6890914024926330e-02 -2.8900515427988448e-02 0.0000000000000000e+00  8.1707227106180610e-03 3.3744834479364452e-02 0.0000000000000000e+00  -1.7383084447537233e-02 3.5038588152591962e-02 0.0000000000000000e+00  -4.2115782448942020e-02 -3.4932088920468528e-02 0.0000000000000000e+00  0.0000000000000000e+00 0.0000000000000000e+00 0.0000000000000000e+00  -4.2009113134953431e-02 3.6602380306402095e-02 0.0000000000000000e+00  0.0000000000000000e+00 0.0000000000000000e+00 0.0000000000000000e+00  0.0000000000000000e+00 0.0000000000000000e+00 0.0000000000000000e+00  -2.9477078121787539e-02 