<?xml version="1.0"?>
<VTKFile type="UnstructuredGrid"  version="0.1"  >
<UnstructuredGrid>
<Piece  NumberOfPoints="12613" NumberOfCells="24648">
<Points>
<DataArray  type="Float64"  NumberOfComponents="3"  format="ascii">1.754850194164129e-19 10 0  7.171082087644432e-20 -2.390360695881477e-20 0  10 7.74405812239634e-20 0  10 10 0  5.508409431539032 5.061957826796441 0  5.510383695683169 4.983270855457881 0  5.508186146205888 4.951173243348314 0  5.497941467052252 4.881765423954886 0  5.471137521760268 4.804175051261868 0  5.453545339186255 4.763333207600981 0  5.404939075425379 4.688728240842416 0  5.384580075383964 4.663725400875435 0  5.324492972183527 4.605198718059261 0  5.265408646046982 4.564280262672778 0  5.216399841859242 4.537198924398934 0  5.140987344395669 4.509639731923661 0  5.108249784959238 4.501033523793106 0  5.019738930971819 4.489189164532158 0  4.979021508024216 4.489979307360391 0  4.892728712101993 4.500307088699735 0  4.859760190688685 4.509834796717661 0  4.783987729816131 4.536326644572125 0  4.718481026082213 4.574860906628673 0  4.690317024057156 4.592910287803872 0  4.626728241538879 4.652398685455495 0  4.576886788458219 4.71297943400525 0  4.556837190057713 4.747147951219743 0  4.51813194684736 4.828801983733919 0  4.506423988538764 4.870381101016299 0  4.491515148537522 4.947440185778126 0  4.489022547534288 4.980642872459673 0  4.492387616647635 5.055176467087968 0  4.50482066876482 5.127616288213586 0  4.531478665078112 5.20227764045011 0  4.545665041736999 5.231391751536325 0  4.583382623897641 5.295325780882933 0  4.629590113316369 5.352065234371793 0  4.687464928103272 5.402714036747574 0  4.714010409475622 5.423631983652585 0  4.792890127759802 5.467266673358895 0  4.850212978861678 5.488795694216977 0  4.916694640376705 5.50406105781803 0  4.964428865901468 5.51072958578876 0  5.047446164736733 5.508993332326093 0  5.082140979340138 5.503768311509599 0  5.145263159917542 5.490377691380318 0  5.226422168731739 5.458705636245426 0  5.268284168427904 5.433868722107685 0  5.336102854832098 5.38381660219529 0  5.36166518790898 5.360782622060024 0  5.420832506571295 5.289938048178175 0  5.441446888244576 5.255829525237909 0  5.481210756422024 5.1761377025877 0  5.491647584082594 5.140165848275675 0  5 10 0  4.739397766706253e-19 5 0  10 5 0  5 4.752415118958181e-18 0  3.21875665148492e-18 2.5 0  2.5 2.005470270209654e-18 0  2.52796500126049e-18 7.5 0  10 7.5 0  7.5 10 0  10 2.5 0  7.5 3.030548561799443e-18 0  2.5 10 0  7.387703209055303 7.387679481916852 0  2.722184994025609 2.572485426993667 0  2.722048950003997 7.428035370610157 0  7.38762209826625 2.612757185924573 0  5.470434204505503 2.142971950907411 0  5.356054973910827 7.849128551742544 0  7.856758448442029 5.470250049028703 0  2.158361836655309 5.176820372602799 0  8.671836206194788 3.787093082617861 0  8.703126725292513 1.296943833615688 0  1.332008335324259 8.66807266435881 0  1.332068883561525 1.332063549009189 0  8.703213983854205 8.703227533491045 0  3.75 10 0  3.948791619608699 1.418682810126364 0  1.405297424736184 3.644982557196592 0  2.41941271516255e-18 6.25 0  7.129475348184791 4.265818050261312 0  1.545089185585594 6.536363417489208 0  6.25 10 0  4.199497149667991 2.957689779748074 0  8.678113583623164 6.712858930037469 0  6.713188289584576 1.322125889379226 0  6.605159556151508 8.559526486555702 0  4.173678278476609 7.09152127102056 0  2.973681667301834 4.040167054563974 0  4.198937254586333 8.590182120718131 0  6.138863978435867 3.264872538626205 0  6.109003170906473 6.776543196380901 0  3.148173012072717 6.065356324789385 0  2.125118089674868e-18 3.75 0  1.25 2.32091612279542e-18 0  7.962488012403692e-19 1.25 0  6.989503555411696e-19 8.75 0  3.75 3.162373143161563e-18 0  1.25 10 0  8.75 2.435914463876576e-18 0  10 3.75 0  10 1.25 0  10 6.25 0  10 8.75 0  8.75 10 0  6.25 1.89266905537638e-18 0  8.672417006508448 2.555029242388793 0  2.580433391176238 8.709202354267486 0  2.721691772564079 1.286239446745494 0  6.708627344754791 5.889264112037844 0  1.210891989978151 2.495902445305104 0  5.610137431341805 9.023724790600406 0  1.017985019427709 5.573001005363881 0  8.997467503071102 5.711602323052011 0  5.712321444454049 1.002693761893717 0  1.137951972809051 7.581316014442879 0  7.642504868503378 8.898592825064465 0  5.107917456836806 3.239337222768754 0  5.062733345442821 6.745423836471958 0  0.9948762151972311 4.567450784049325 0  3.26430200297133 4.940592231787944 0  8.626574799564183 4.777187659900392 0  8.416406624986289 7.69062496857128 0  7.690715189617595 1.584093945054947 0  7.64707631909219 6.455542689494458 0  3.391074763790243 8.098628477845129 0  6.663580000991725 5.051065593596568 0  6.353114428971307 2.266618977662799 0  4.862085156677989 1.393870769196929 0  3.420408091393103 3.309150908491043 0  2.009565764624782 8.038866107983486 0  1.960851302303232 2.017023827603804 0  1.984851677554632 0.7305348777425977 0  1.907943244732709 9.341327140767746 0  9.336988358354159 1.913526014922238 0  9.352308263707082 8.102122145410776 0  8.102077343833551 0.6477908469806096 0  8.009047200708489 3.211562520046098 0  9.334515291638947 3.141391484369457 0  9.348644085413133 9.348645493665952 0  10 0.625 0  9.375 1.277226806331167e-18 0  0.6844319559355009 9.315578355964744 0  0.6844281869566925 0.6844275955774163 0  0.6579900910774593 6.849480369254815 0  3.125 10 0  2.072854768798716 4.322655088928929 0  2.287102596322224 3.340415849237916 0  2.736097958108764e-18 3.125 0  3.31467869281024 1.978634972522381 0  4.375 -2.658492906299011e-19 0  6.173774992350439 7.71759544195607 0  3.403070764016352 9.073011221124194 0  6.966145817120728 3.455443295275107 0  6.266089915646964 4.114570188867584 0  0.6517425558779535 1.826669081851777 0  9.334687717078367 4.290774593860925 0  3.365740328109776 0.7662312044996745 0  4.443867392529713 2.134785251165734 0  6.971167930933343 9.336798634662323 0  6.880273331402348 6.686796990439644 0  1.916063711060963 7.232953855364455 0  3.991462764628615 6.220044801594866 0  3.435903068169174 6.936010726734231 0  2.396382917631626 6.534806683756125 0  4.628482272825606e-19 8.125 0  3.869047157629385 4.067318099691099 0  4.813783524584689 9.144308166604171 0  9.200867358718131 7.331074555890392 0  7.367080878514123 0.8873530034017764 0  8.125 10 0  7.991957459454929 4.282169888269488 0  1.77227250217666 5.82066369378673 0  7.467093866688366 4.862386880427085 0  4.590909995901066 7.802345260803133 0  7.769458070154493 8.113933561089972 0  8.325814170308885 6.055590590143439 0  7.042318703084533 1.979254980603786 0  6.875 1.804331904409452e-18 0  4.611703642311036 3.661900538555714 0  6.88086503916919 7.8775251739516 0  0.7453274003113822 8.227398393748437 0  9.248192537703755 0.7518107866697156 0  4.077623924932028 0.6778067267488225 0  0.7984376430488312 3.124933554137523 0  8.275984181023516 9.281434073867104 0  4.591078635625128 6.313066083561622 0  6.274271385010062 9.256288714164508 0  5.995333845451677 6.001607057280833 0  5.515448019869084 6.318193055148243 0  3.66554105990809 5.459749499748416 0  8.066302807220211 7.055911725117797 0  8.036583238873602 2.213430324820421 0  4.042050361347477 9.321205085492268 0  6.074157826503651 1.614917924634853 0  2.839277248611377 5.492796703144295 0  5.940984308617166 8.392694297008006 0  6.349123281040736 0.7204936613522513 0  10 6.875 0  9.279484005860244 6.348515578199778 0  5.530508262756271 3.732069449743268 0  5.605658737234913 7.162623044507211 0  0.7292654963121902 3.915984665912836 0  1.910435012107853 2.716592532426561 0  0.7130402813680778 6.181144844540642 0  5.817612377885145 2.712912593123005 0  6.732218365797855 2.858426236190066 0  4.944662797411091 8.419978975757493 0  4.746932506364555 0.6714068222499646 0  9.307349177657068 4.93246656087274 0  7.624204297062134 3.775012570288108 0  9.235479156389947e-19 4.375 0  1.336053431040501 0.6604921741283021 0  3.579341662917518 2.658019753868295 0  4.000770733225883 7.960439309297509 0  2.093024247985501 1.384281049792822 0  6.875 10 0  10 4.375 0  1.709777468681512e-18 1.875 0  3.3364618948856e-18 6.875 0  0.625 1.307449577670017e-18 0  1.348202333004917e-18 0.625 0  0.625 10 0  10 3.125 0  8.125 1.458626688529542e-18 0  10 8.125 0  10 1.875 0  1.875 3.561190388306896e-18 0  5.625 1.639286854386825e-18 0  10 5.625 0  3.692344677985044e-18 5.625 0  5.625 10 0  3.125 1.579409336943177e-18 0  1.875 10 0  10 9.375 0  9.375 10 0  1.060836022619828e-18 9.375 0  4.375 10 0  3.769809683386463 4.598302975686423 0  8.679550686439969 3.174427277766537 0  8.695652738864892 1.928184979760128 0  2.598272369522731 0.6445607087794306 0  2.591348146669248 1.922732297385072 0  1.640250670959214 4.779018938750676 0  2.834870111823753 9.411006593908969 0  2.597531122517653 4.72850955665356 0  1.957734352190846 8.702973403481749 0  2.634436304434762 8.066093996364275 0  9.3648546432991 8.72454325684159 0  6.62311458414851 7.242896228910564 0  9.358742054999583 2.52810758989241 0  4.067556705076307 3.560128202755764 0  4.95699609036619 2.53257728162126 0  1.295126635673303 9.374962283219325 0  6.508373784417461 4.564358361469855 0  7.249337669564103 8.401865047689347 0  6.207859750775974 5.414024026321929 0  7.152313164474172 5.489390340245255 0  3.63695565109838 7.496765579287662 0  3.886979851377776 2.037392489258444 0  1.411761287473147 3.063168994338736 0  1.248342324293481 1.913103980562711 0  0.6016479325009401 2.412063202120608 0  9.385424251588708 3.715793869906494 0  9.291694417182521 1.334305915651545 0  3.295318377343706 1.368191416534141 0  8.671802405996091 0.714616853331883 0  2.979545886690356 6.633189590474483 0  0.5877792331989389 1.252015402569886 0  2.398935908476319 5.950346970847304 0  0.6498046707987357 5.077941659617983 0  1.562164190839493 5.319436716489561 0  5.265580943951703 9.480927701685845 0  2.888527416235667 3.480200461720536 0  1.378529772916357 7.06851437272156 0  0.5855721873875858 7.410989257157205 0  1.307530517168282 8.106927102737696 0  5.318344408398711
[...]
<CellData  Scalars="dens"> 
<DataArray  type="Float64"  Name="dens"  format="ascii">1.0811493636864411e+00   9.7679723211137515e-01   1.0938243928090030e+00   9.5914080785456324e-01   3.0639770573682035e+00   1.0708122000049727e+00   1.0120216066989269e+00   3.0546285656819978e+00   1.2857692589806928e+00   1.0759763818009178e+00   9.4829865944731884e-01   9.5755197997941810e-01   9.6925051031470921e-01   9.5632601265904382e-01   9.5641717721718522e-01   2.9188081840272719e+00   9.5874445504232619e-01   1.0044248785437611e+00   1.0734376171486781e+00   3.1470320638760656e+00   2.4548959948781794e+00   9.5332975768434747e-01   1.0860982282505176e+00   9.7243337898059767e-01   1.1451290703476351e+00   1.1094398019957106e+00   1.0888171086498670e+00   1.0830991990958230e+00   9.5835269302160742e-01   1.0706871523936101e+00   1.0514829300885111e+00   9.5844779979617223e-01   3.1586216413283488e+00   1.1101238696871627e+00   9.5843121478088444e-01   1.0936893442740721e+00   9.6298698428721530e-01   1.0975726491892837e+00   1.0862678036794302e+00   1.0693339501041830e+00   1.0025656138992507e+00   1.0298328055683970e+00   1.0170522356347840e+00   9.5829554458340971e-01   1.4122174534871950e+00   1.1325149573325608e+00   1.1667534041888521e+00   9.6194934361911277e-01   1.1148280188936235e+00   9.5679584250987038e-01   9.7417753040981458e-01   9.9006981622812562e-01   1.0553017016352677e+00   9.5913915274924177e-01   1.2208755583013240e+00   9.8698084716232481e-01   1.0698976658740713e+00   1.1175873754867509e+00   9.5364669310479377e-01   9.6315470152603244e-01   9.7033448662894162e-01   1.3405739410573592e+00   1.1053880640557185e+00   1.9083554446508155e+00   1.0831084409002358e+00   1.0824452484278146e+00   1.1237829925970488e+00   9.6301005335060341e-01   9.6503121965108962e-01   1.0809351593842536e+00   9.8104582227790504e-01   9.8407455049951564e-01   9.9511293207173568e-01   1.0643954309845463e+00   9.6639137698374700e-01   9.5202014479613928e-01   9.6837182335638716e-01   9.5601610850307106e-01   9.5667719833679277e-01   9.5788272991229984e-01   1.0858168965815418e+00   1.0765737393687864e+00   9.5703002821900696e-01   9.6110854298992299e-01   9.5923510014581870e-01   1.0680297629729312e+00   1.1581993823654433e+00   9.5844436009529010e-01   9.4903496268214305e-01   9.5887060944975167e-01   9.6161319845680859e-01   9.5467226190638943e-01   9.8443676086739706e-01   1.0566280858486410e+00   1.1142347599209270e+00   1.0216284916019032e+00   1.1105729103695194e+00   9.4716369701626013e-01   1.1006502888368019e+00   9.8118469879740933e-01   9.7452984024915301e-01   9.9235324327193397e-01   9.5693757505958077e-01   9.7950723949229157e-01   9.4676762627213473e-01   9.5868567262766391e-01   9.5778398079077132e-01   9.5868128568646604e-01   9.5255852865859392e-01   9.6445978221572415e-01   9.7194748414920040e-01   9.5967408674540078e-01   9.5782400506795673e-01   9.7112944622268449e-01   9.5526497471476746e-01   9.5485576154111629e-01   9.5398693781441501e-01   9.6199450067524994e-01   9.6345171032253951e-01   9.5867177473957055e-01   9.9444585733524371e-01   9.9368085625033797e-01   9.5824558767487178e-01   9.6026657816570860e-01   9.6332014216704154e-01   9.5759580089804863e-01   9.6916173400596028e-01   9.9059920549490887e-01   9.6308845973245527e-01   9.4872781285859331e-01   9.4969814296436628e-01   9.5951220585640973e-01   1.0502263857730501e+00   1.0968327170473240e+00   1.1366761872522348e+00   9.9628524949160169e-01   9.5813763949056951e-01   9.8380166338065878e-01   1.0145884535729877e+00   9.6586010464024596e-01   9.7158907579773079e-01   9.6035511381099803e-01   9.5682511310871166e-01   9.5720143120426204e-01   9.5638424347372342e-01   9.6086712296002486e-01   9.7664189377421795e-01   9.9446103610325054e-01   9.6631498326172605e-01   2.0045435405990455e+00   1.1183506531066663e+00   9.5729214329006396e-01   9.6225582026397505e-01   9.6089823250613482e-01   9.5688402206845014e-01   9.6088415262675753e-01   9.7569076388956444e-01   9.5787135648871180e-01   9.6379947568739011e-01   9.5866820729629687e-01   9.5845781448852607e-01   9.6280245978876700e-01   9.5908786190869477e-01   9.7039358131313314e-01   9.5840164379433590e-01   9.6134507060827579e-01   9.5882598987947498e-01   9.6205659277855382e-01   9.5665516517083748e-01   9.5648224616074962e-01   9.5735134233267061e-01   9.6433259371780178e-01   9.7919658235867535e-01   9.7020866216381862e-01   9.6978615914465760e-01   9.6998047096347439e-01   9.6395997933377753e-01   9.6603861373103217e-01   9.5556776897207918e-01   9.5587016062856456e-01   9.4781789371529723e-01   9.5811731072331996e-01   9.5601934812547351e-01   9.6062794735955914e-01   9.5862482299103913e-01   9.6222986664243360e-01   9.6077250057324703e-01   9.4838386165895217e-01   9.4984245602875006e-01   9.6222141558719343e-01   9.6552912656453005e-01   9.5937946126293849e-01   9.5411936907216965e-01   9.7134394344632591e-01   9.7729986978554906e-01   1.0753658031746391e+00   1.0421845638583962e+00   9.6136678055234026e-01   9.6459307746389400e-01   9.5215523483519471e-01   9.5817977906840479e-01   9.7517209059059906e-01   9.5584639158502749e-01   9.7142459797405500e-01   9.6002533498113052e-01   9.6851022486212146e-01   9.6480279029094540e-01   9.9360324928801524e-01   1.0543319751709028e+00   9.7430917077527079e-01   9.5761631209172249e-01   9.7771399616841093e-01   9.7413529599009152e-01   9.6654006396992986e-01   9.9648811884396027e-01   1.0043650098055961e+00   9.5216016002712900e-01   9.5451168409306997e-01   9.5199018908000255e-01   9.6768388084374013e-01   9.6430931997219060e-01   9.5877773444455028e-01   9.5936769643741304e-01   9.6752815513460066e-01   9.6814970979507309e-01   9.6224215969188198e-01   9.9516760805573901e-01   9.8586648260687015e-01   9.6875629086181547e-01   9.5887658923560504e-01   9.6471672794787799e-01   9.5784664347094139e-01   9.7105481186003906e-01   9.5802029362406738e-01   9.5837903380828804e-01   9.5191243787096091e-01   1.1356070065086361e+00   1.0649685868461554e+00   9.5782182204807254e-01   9.5786195511104166e-01   9.5887178470324630e-01   9.6492035951032995e-01   9.6333788687437527e-01   9.6603050145579461e-01   9.5154767953448838e-01   9.4522224781863307e-01   9.5756149162548843e-01   9.5788193645575725e-01   9.6544714739105641e-01   9.5894445280313934e-01   1.1035501821494278e+00   1.0282095392499944e+00   9.5592855299495350e-01   1.1528984321488815e+00   1.0493170537490413e+00   1.1225998802110317e+00   1.1859882237500063e+00   9.9923259439975198e-01   9.8933899752252086e-01   9.5804116957520891e-01   9.5901183548425095e-01   9.5662600153385768e-01   9.5698836152951217e-01   9.5294357706800381e-01   9.5428717946915464e-01   9.5048362503464767e-01   9.5180083371702484e-01   9.7721831168690498e-01   9.7061697207021824e-01   9.5489552176685388e-01   9.5842482694305942e-01   9.5613404300265747e-01   9.5191040451654063e-01   9.5195799131161474e-01   9.5276134955315106e-01   9.5413899394276325e-01   1.0675880344891424e+00   1.0710887505105549e+00   9.7859501972192697e-01   9.7698495690967024e-01   9.5388212763616043e-01   9.5487384878071069e-01   9.5755073023316739e-01   9.6005983406106155e-01   9.5930565934600998e-01   1.0274211475896491e+00   9.6431678714930158e-01   9.6678626001894341e-01   9.8398781261592694e-01   9.5713120242370919e-01   9.5169972285849702e-01   9.5240652975124718e-01   9.5094203251390974e-01   9.7187488806232947e-01   9.7507443283358608e-01   9.4917102839912504e-01   9.6352846866843866e-01   9.6791239251395889e-01   9.8772103544983325e-01   9.5525594197255226e-01   9.5823129673279506e-01   9.5848862253930400e-01   9.6045740341481167e-01   9.5108232149647987e-01   9.5615091207961955e-01   9.6153605735488412e-01   9.5803286209041982e-01   9.7328460283202722e-01   9.7103812252862221e-01   9.7297402537104583e-01   9.5043543216100401e-01   9.5648128646171227e-01   9.6422641931586883e-01   9.6584406053424166e-01   9.6013230879693057e-01   9.5880245035357248e-01   9.6752141066331721e-01   9.6261142850796400e-01   9.4914102980854309e-01   9.5039122283010924e-01   9.5168880049574667e-01   9.4627411514001658e-01   9.4945526044230211e-01   9.6827602036356153e-01   9.5963309962202836e-01   9.7288300979723774e-01   9.6881429840743716e-01   9.5183910971444008e-01   1.0273912994219421e+00   1.0197893219790475e+00   9.5652607772364773e-01   9.5866518354124530e-01   9.5835954123119371e-01   9.6018784190469286e-01   9.5431403406387083e-01   9.5733340264331168e-01   9.6062305094173528e-01   9.6096403308291367e-01   9.5759053119869064e-01   9.6358763013992621e-01   9.5642262974934800e-01   9.5748536031816489e-01   9.9289955731907775e-01   9.8012461172659504e-01   9.5905868312123699e-01   9.5660387729220642e-01   9.5953213908611412e-01   9.5877170001973011e-01   9.6796198345029416e-01   9.8255001505986594e-01   9.7904265642763733e-01   9.5700612498324811e-01   9.8042049739722392e-01   1.0380721579918177e+00   9.7685692856470718e-01   9.7595129741907338e-01   9.6228919012579073e-01   1.0012709377591893e+00   1.0171998039653647e+00   9.5660341679377847e-01   9.5684781579992351e-01   1.0430802732804447e+00   1.1276616023554993e+00   9.9495315155432662e-01   9.8500165976048870e-01   9.6214113812302282e-01   9.6323209227903717e-01   9.6082472056141977e-01   9.6317922430312519e-01   9.5410385233904860e-01   9.5775557602917816e-01   9.5857406543050405e-01   9.5971677013831425e-01   9.5844608297600931e-01   9.5039668867621507e-01   9.6118050317700310e-01   9.6647790632908015e-01   9.5842141632257527e-01   9.5782293477813507e-01   9.6313971259870856e-01   9.6157080460395439e-01   9.7951539256474796e-01   9.6464587054358619e-01   9.6821826309406755e-01   9.6077969537818675e-01   9.5744080728858882e-01   9.4935330774577564e-01   9.6701376761890812e-01   9.5826864708593884e-01   9.5352213703436017e-01   9.7661342401158524e-01   1.0116874529810791e+00   9.5823670040436648e-01   9.5593553755659311e-01   9.6105027657598119e-01   9.6406827743473611e-01   9.5899514955060883e-01   9.5072192161842362e-01   9.5462150148608182e-01   9.6872643186570528e-01   9.5688804805345140e-01   9.5986807816603603e-01   9.6307428140356632e-01   9.5960139265741362e-01   9.6136440925375577e-01   9.6639025596312178e-01   9.6446009990149340e-01   9.6040612196390795e-01   9.5679978266954624e-01   9.5982946339565145e-01   9.9282799890081974e-01   9.8065106481561026e-01   9.7372286773133954e-01   9.7000121298015696e-01   9.5960869293189544e-01   9.6124694819097334e-01   9.5969301357700776e-01   9.6213575032182230e-01   9.5699796261756598e-01   9.5754569340002105e-01   9.5195227485693923e-01   1.0889664006915845e+00   1.0753054160255222e+00   1.0287222074184172e+00   9.8814290893833345e-01   9.6953224007543826e-01   9.6170804613412519e-01   9.5957628522061911e-01   9.7169407788709194e-01   9.6273319109508382e-01   9.5424851692979928e-01   9.5312957087299455e-01   9.5823739135096198e-01   1.0687275721145943e+00   1.0414104024448916e+00   9.5648703909105159e-01   9.5673337361625088e-01   9.6411400798699853e-01   9.7515525278377546e-01   9.5907029271621125e-01   9.5849905452200557e-01   9.5938142583763397e-01   9.5517326603689723e-01   9.5822286294015391e-01   9.5823979793142056e-01   9.5971797475457354e-01   9.6359323410147624e-01   9.6208600569476055e-01   9.6037171217119899e-01   9.5683538170871341e-01   9.5653894737376477e-01   9.5372445414295481e-01   9.5830750604256065e-01   9.5210998829390270e-01   9.5337634177519437e-01   3.1252484659762554e+00   1.0381832324569378e+00   9.9094943768843158e-01   9.8274032665474287e-01   9.9173470748434289e-01   9.8613742437351937e-01   9.5094960554898311e-01   9.4628068778148278e-01   9.5049526163379350e-01   9.4697612317113511e-01   9.4682968520540600e-01   1.1237949577044213e+00   1.1530113732607203e+00   9.5904929632799740e-01   9.5642296782698899e-01   9.5425703850443344e-01   9.7037578340119690e-01   9.8881719802318535e-01   9.5579437928718558e-01   9.5616222703201259e-01   9.5752291793990507e-01   9.5818191554343290e-01   9.6061208846525281e-01   9.6651937447122316e-01   9.5868429529861665e-01   9.6176758600615475e-01   9.7310128342631397e-01   9.6078198040763274e-01   9.9383468953876808e-01   9.9325946598151960e-01   9.6706789562734075e-01   9.9622348227216806e-01   1.0874689071084769e+00   1.0447692628349667e+00   9.5893933537104825e-01   9.6721655963546938e-01   9.6135387875812228e-01   9.5682009973268434e-01   1.1664676836196801e+00   1.4658849011877404e+00   9.6212265775272821e-01   9.6273884164594870e-01   9.5825349814555971e-01   9.5622489718786419e-01   9.5609334082907427e-01   9.5617090640182478e-01   9.5638514721314483e-01   9.5713778712099162e-01   9.5946784647177641e-01   9.5856927367237366e-01   9.4850607298591727e-01   9.5630836946840247e-01   9.5266118838832425e-01   9.5893030423044789e-01   9.6090836803391899e-01   9.7943270635718849e-01   9.9726183829882453e-01   9.5135498641135530e-01   9.5874600102015628e-01   9.6265030948032027e-01   9.5675475446331060e-01   9.6111935771740131e-01   9.4873784294521590e-01   9.5111740169967729e-01   9.5695747224006866e-01   9.5156550549481889e-01   9.7522104153847067e-01   9.9137999419193179e-01   9.6249908283288110e-01   9.6220019997552597e-01   9.6006225647698651e-01   9.5915032026185354e-01   9.7075055445107594e-01   9.7887217411116523e-01   9.5211521687801937e-01   9.5204050900030990e-01   9.5401315352333593e-01   9.5685112937212757e-01   9.6328409747378563e-01   9.6343273560066756e-01   9.9503524715832004e-01   9.8170314441998752e-01   1.0260106500734281e+00   9.9448562125370665e-01   9.6022805545495737e-01   9.5209083443778275e-01   9.5640193726863187e-01   9.7320025195979021e-01   9.7784002452888530e-01   1.0654862722130471e+00   1.1195467207969270e+00   1.0105832842039761e+00   1.0827122215877383e+00   1.2960421924888024e+00   1.1162857279318041e+00   9.7205753230971259e-01   9.8449365063695837e-01   9.5477548263014445e-01   9.5552292695271623e-01   9.5354258788678015e-01   9.5371500456125780e-01   9.5387672895435427e-01   9.7878754485906305e-01   9.7071775658023607e-01   9.5912367037413626e-01   9.5691338839967266e-01   9.5540092854463077e-01   9.7384819115885990e-01   9.7086272124171435e-01   9.5772433361644138e-01   9.5694238138235799e-01   9.7279099763541843e-01   1.0042273273979794e+00   9.6179130893281095e-01   9.5923875244264500e-01   9.6400792205813535e-01   9.5784746080862948e-01   9.5768293363682866e-01   9.5728250215961830e-01   9.5852515947640571e-01   9.6932621571542787e-01   9.6111758664835933e-01   9.6346123123080196e-01   9.5891717955766387e-01   9.5897940861482256e-01   9.5593094146712454e-01   9.6225672326005129e-01   9.5990103204324884e-01   9.5808723060963619e-01   9.6499060474594200e-01   9.7500462923481335e-01   9.6421902582783803e-01   9.7339140863832085e-01   9.7061499949205388e-01   9.6841085204893762e-01   9.6501745821148799e-01   9.6361954371987890e-01   9.6756940478505371e-01   9.8759426783875059e-01   9.6191447412202791e-01   9.6958268970721750e-01   1.0876819164251650e+00   1.0041136296418050e+00   9.5694748714408739e-01   9.5856390694351623e-01   9.5965410066574353e-01   9.5875379912974890e-01   9.5907339422722215e-01   9.5830602879335858e-01   9.6325932636822997e-01   9.6292829219711729e-01   9.5893308407503908e-01   9.5860328077333312e-01   9.6640494947436506e-01   9.6651873368246199e-01   9.5941189863919074e-01   9.5978130720351218e-01   9.5974253715334679e-01   9.6126742848042956e-01   9.6510972496407765e-01   9.5809607406049924e-01   9.5750083555539711e-01   9.6509610638407728e-01   9.5594942984386144e-01   9.5670335200363643e-01   9.5650224475891477e-01   9.5480628589566807e-01   9.5692296188672810e-01   9.6338158383943795e-01   9.7400840817079992e-01   9.7911644561386102e-01   9.7287470678124754e-01   9.7743812372902839e-01   9.6933445355813275e-01   9.5433588559186766e-01   9.5478416161606083e-01   9.5029790597748742e-01   9.5337680668833868e-01   9.7642697907008025e-01   9.6203334190491252e-01   9.4951822743749814e-01   9.5493303579103817e-01   9.6326766734869607e-01   9.5842527855973769e-01   9.6361964346827145e-01   9.7253087926822268e-01   9.7134273942444571e-01   9.6038680542435717e-01   9.6936632384518462e-01   9.6417464131312580e-01   9.5675732017329362e-01   1.0000638842204166e+00   9.7236532544363385e-01   9.7161040183761649e-01   9.6421107477125867e-01   9.6302472284411522e-01   9.6466991860126283e-01   9.5316998666909902e-01   9.5640307785570544e-01   9.5507254597616653e-01   9.6002007944579604e-01   9.5772232392683199e-01   1.5410658428339863e+00   1.1308396171270712e+00   9.5776504900564885e-01   9.6177328077945001e-01   9.4797387115962573e-01   9.5339262643204892e-01   9.6202751894637972e-01   9.7174589900294472e-01   9.6270180837504726e-01   9.6209230844467264e-01   9.5848379954149632e-01   9.5837401119203613e-01   9.4876013403826420e-01   9.5097095659329522e-01   9.6461075607203495e-01   9.5034672990673597e-01   9.4807325681557775e-01   9.6471024470386968e-01   9.5530846665452052e-01   9.6445318359707644e-01   9.6690465376906010e-01   9.6549691481741151e-01   9.6068388473633315e-01   9.5960789653263168e-01   9.7588562282644320e-01   1.0073696584233529e+00   1.0219723842360975e+00   9.5549336301593712e-01   9.5694168173978700e-01   9.5540285730908292e-01   9.5341638410426421e-01   9.5373299661984134e-01   1.1330339665106239e+00   1.1487083699788752e+00   9.6824070276227692e-01   9.6594080807911087e-01   9.5173840656597419e-01   9.5301955583594888e-01   9.9037367566443368e-01   9.7132696620399650e-01   9.6591896950960277e-01   9.7425991520314770e-01   9.5050028198896475e-01   9.5208687524600821e-01   9.6273048076091206e-01   9.6076620572618243e-01   9.4960435233916607e-01   9.4530905928182163e-01   9.5323361513873539e-01   9.5432366219480380e-01   9.5173138766370213e-01   9.5229681339471461e-01   9.7098808672571635e-01   9.8059573707945569e-01   9.7210845521220202e-01   9.6592574124895547e-01   9.4548931486464227e-01   9.4236088405869467e-01   9.5610263510822924e-01   9.5722620141882420e-01   9.5050215053712117e-01   9.5289148643170507e-01   9.5251762189702005e-01   9.5686176963194081e-01   9.5781254654229742e-01   9.6038972391807043e-01   9.5707629320381371e-01   9.8282174388478272e-01   9.6540096669415509e-01   9.7376990484279213e-01   9.7705873338560922e-01   9.5872342253854903e-01   9.6223248424856178e-01   9.6291600602396421e-01   9.6530806363628374e-01   9.5658609254728999e-01   9.5133700583076952e-01   9.5822914747441001e-01   9.5345809031971052e-01   9.5667880526975013e-01   9.5701179545079995e-01   9.6312326344411914e-01   9.6030252310872544e-01   9.7403675823970004e-01   1.0187156805224717e+00   9.8069114873039598e-01   1.0255525785133195e+00   9.7041368658194027e-01   9.6113514056619276e-01   9.5457807352791768e-01   9.5393378421481367e-01   9.5897174745591329e-01   9.5679135047136399e-01   9.6216393672286549e-01   9.6156792334425512e-01   9.5804128037006830e-01   9.6340628294879560e-01   9.7234724374974213e-01   9.8837888714688416e-01   9.4761803806459610e-01   9.4649256320817765e-01   9.8281121998937770e-01   1.0029603189831748e+00   1.0782222142507982e+00   2.2584707813727269e+00   9.4933960885652957e-01   9.4816061484745096e-01   9.8068175909517707e-01   9.8503056825446422e-01   9.5145902025392992e-01   9.6053297015689065e-01   9.6465863942699293e-01   9.5503244199174653e-01   9.5305490331485498e-01   9.5624499730348800e-01   9.5551425124198475e-01   9.6077641186149909e-01   9.5876311264528280e-01   9.5827099058961362e-01   9.5875160723546671e-01   9.5878569281745607e-01   9.6943833328350582e-01   9.6540164413363150e-01   9.6267773039168025e-01   9.6273276664688279e-01   1.3263410429170015e+00   1.0454233355615372e+00   9.7465254450020866e-01   9.7488902487994411e-01   9.5154477223375911e-01   9.5511597486414779e-01   9.5331547597864208e-01   9.4975523132882855e-01   1.0378545352844906e+00   1.0404231668623698e+00   9.5774375070911666e-01   9.6670705767062526e-01   9.6780995863621011e-01   9.7303287977881092e-01   9.51787330212483