<?xml version="1.0"?>
<VTKFile type="UnstructuredGrid"  version="0.1"  >
<UnstructuredGrid>
<Piece  NumberOfPoints="12613" NumberOfCells="24648">
<Points>
<DataArray  type="Float64"  NumberOfComponents="3"  format="ascii">0 10 0  0 0 0  10 0 0  10 10 0  5.992114701314478 5.125333233564304 0  6 5 0  5.992114701314478 4.874666766435696 0  5.968583161128631 4.751310112835145 0  5.929776485888252 4.631875447315323 0  5.876306680043863 4.518246325898284 0  5.809016994374947 4.412214747707527 0  5.728968627421411 4.315452894071311 0  5.637423989748689 4.22948675722421 0  5.535826794978997 4.155672074497985 0  5.425779291565072 4.09517294753398 0  5.309016994374947 4.048943483704846 0  5.187381314585724 4.017712749271311 0  5.062790519529313 4.001973271571728 0  4.937209480470687 4.001973271571728 0  4.812618685414275 4.017712749271311 0  4.690983005625053 4.048943483704846 0  4.574220708434928 4.09517294753398 0  4.464173205021003 4.155672074497985 0  4.362576010251311 4.229486757224211 0  4.271031372578588 4.315452894071312 0  4.190983005625053 4.412214747707528 0  4.123693319956137 4.518246325898285 0  4.070223514111748 4.631875447315322 0  4.031416838871369 4.751310112835146 0  4.007885298685522 4.874666766435696 0  4 5 0  4.007885298685522 5.125333233564304 0  4.031416838871369 5.248689887164855 0  4.070223514111749 5.368124552684678 0  4.123693319956137 5.481753674101715 0  4.190983005625053 5.587785252292473 0  4.271031372578589 5.684547105928689 0  4.36257601025131 5.770513242775789 0  4.464173205021003 5.844327925502015 0  4.574220708434927 5.904827052466019 0  4.690983005625053 5.951056516295154 0  4.812618685414275 5.982287250728689 0  4.937209480470687 5.998026728428272 0  5.062790519529313 5.998026728428272 0  5.187381314585725 5.982287250728689 0  5.309016994374947 5.951056516295154 0  5.425779291565073 5.90482705246602 0  5.535826794978997 5.844327925502015 0  5.63742398974869 5.770513242775789 0  5.728968627421412 5.684547105928688 0  5.809016994374947 5.587785252292473 0  5.876306680043863 5.481753674101715 0  5.929776485888252 5.368124552684678 0  5.968583161128631 5.248689887164855 0  5 10 0  0 5 0  10 5 0  5 0 0  0 2.5 0  2.5 0 0  0 7.5 0  10 7.5 0  7.5 10 0  10 2.5 0  7.5 0 0  2.5 10 0  7.485014227815469 7.485014227815468 0  2.624291547813317 2.470127454275751 0  2.624291547813306 7.529872545724244 0  7.485014227815469 2.514985772184531 0  5.501322239123305 1.989844925476205 0  5.379553576772174 8.004475929833614 0  8.009762413667167 5.50092484241762 0  2 5.188744001760954 0  8.749910705909175 3.75 0  8.735102992990898 1.264897007009102 0  1.298640613344511 8.70135938665549 0  1.298640613344514 1.298640613344514 0  8.735102992990898 8.735102992990898 0  3.75 10 0  3.912893232829084 1.33196018051077 0  1.32486817239184 3.602721496273811 0  0 6.25 0  7.33800602899442 4.185061400278719 0  1.46012754946627 6.586509713609103 0  6.25 10 0  4.107618314163975 2.746101144635254 0  8.746887821637173 6.757315261531288 0  6.757712161714717 1.253114543328782 0  6.652390351926942 8.636871422196799 0  4.082811893307114 7.297579393422678 0  2.77185775043354 3.935002032188672 0  4.170229426070917 8.680048884324506 0  6.279207553947785 3.060640586921346 0  6.243921113202843 6.981280825327044 0  2.943794974478871 6.190871022350711 0  0 3.75 0  1.25 0 0  0 1.25 0  0 8.75 0  3.75 0 0  1.25 10 0  8.75 0 0  10 3.75 0  10 1.25 0  10 6.25 0  10 8.75 0  8.75 10 0  6.25 0 0  8.727654225028649 2.507537004222282 0  2.534024448053167 8.763521267692715 0  2.675330070144278 1.229368534631439 0  6.938317963016699 6.016222388396734 0  1.160966450995929 2.452397487456289 0  5.625 9.085018488154775 0  0.9534467980924162 5.587666637777538 0  9.059920331215721 5.729227516799859 0  5.729968520679604 0.9401057243527156 0  1.092141083367926 7.622001080218721 0  7.681674540101278 8.941941402997672 0  5.126847797924912 2.962082287113166 0  5.072611876314043 7.02470488787669 0  0.9313086115777203 4.556301549197934 0  2.984525138894107 4.930394751680348 0  8.718829002404984 4.768760792108237 0  8.475490130958471 7.744627089847896 0  7.744824371465027 1.524707150658661 0  7.780225167097711 6.538995998896642 0  3.32557460434723 8.201312828626905 0  6.953994462708644 5.060443590815006 0  6.429686829531911 2.133376767868373 0  4.85671980606795 1.299671875972767 0  3.266001241014683 3.14535385856259 0  1.948129212827459 8.100524007339061 0  1.898758825823051 1.95534337194406 0  1.958825626380582 0.7043680802078647 0  1.884535848570219 9.364356647009144 0  9.360191246290798 1.889986302787311 0  9.374824554239121 8.125 0  8.125 0.6251754457608796 0  8.110103260619079 3.140030154772246 0  9.367462718860255 3.117506830667309 0  9.360276396535061 9.360276396535061 0  10 0.625 0  9.375 0 0  0.6718845514179709 9.328115448582029 0  0.6718845514179738 0.671884551417974 0  0.6252707365992336 6.872955555725 0  3.125 10 0  1.930626943878649 4.281569467265474 0  2.166098978946731 3.256154061197009 0  0 3.125 0  3.24490641379911 1.874227206196345 0  4.375 0 0  6.24528584502123 7.859128418502952 0  3.372555109391759 9.122213048817835 0  7.125115810101655 3.32481376209067 0  6.518937326666101 3.931294464879644 0  0.6294854495481924 1.803884990381194 0  9.374955352954586 4.278924226850261 0  3.340086357073421 0.7260714220376305 0  4.407675578536106 1.984306553857061 0  6.995329811007009 9.368718761903855 0  7.030488805927661 6.824106380937062 0  1.832745784532399 7.302060510260434 0  3.793856604979397 6.45548174406993 0  3.302730492366902 7.094630057496399 0  2.264317047872121 6.622528084928073 0  0 8.125 0  3.619764789488634 3.858170131500536 0  4.809533851079751 9.198946189517734 0  9.235851937969425 7.360812901894209 0  7.399870113940684 0.848812574976799 0  8.125 10 0  8.12818958240511 4.24088624549136 0  1.656219984581841 5.859105462713216 0  7.66194676072481 4.849087268447366 0  4.56205730738654 7.961273900611192 0  7.832141117865442 8.179894501003959 0  8.42963329327514 6.099017498410762 0  7.114170644544133 1.887196636064217 0  6.875 0 0  4.512850758385448 3.346678772948598 0  6.958450246993527 7.981246762236177 0  0.7206281542170559 8.252510380020961 0  9.262570163491095 0.7374298365089046 0  4.0625 0.6377232150431691 0  0.7588267982127279 3.096534204957019 0  8.299940316843887 9.30479443431005 0  4.482292174982793 6.629885056144825 0  6.295435933129137 9.298012546264818 0  6.227566314612962 6.237161009365162 0  5.644150190639389 6.622223383766955 0  3.356407443190571 5.573307699636366 0  8.155690032825335 7.125761127739697 0  8.104157944886294 2.148203430801016 0  4.02637088174769 9.3611182473956 0  6.116309641530274 1.515348705003571 0  2.620835484783206 5.549538932621628 0  5.978678459905598 8.494101919232964 0  6.370549931657234 0.6805676201521447 0  10 6.875 0  9.319293531819399 6.369901553367093 0  5.667616539986666 3.425394228399495 0  5.672053398084052 7.374877159110779 0  0.6870138590775676 3.897472165971907 0  1.828803548322936 2.64759741429768 0  0.6723431162417803 6.200433195389051 0  5.894273988853201 2.522330329344644 0  6.850458438133735 2.717866506790418 0  4.941950255974137 8.528891095897622 0  4.742449613607294 0.6293405631033336 0  9.35097262831559 4.931152233783056 0  7.769606751328654 3.696200900749275 0  0 4.375 0  1.316521962984352 0.6418967882543624 0  3.478252664165245 2.506093101477126 0  3.945801058433374 8.091518976804174 0  2.046950909185547 1.335529230658999 0  6.875 10 0  10 4.375 0  0 1.875 0  0 6.875 0  0.625 0 0  0 0.625 0  0.625 10 0  10 3.125 0  8.125 0 0  10 8.125 0  10 1.875 0  1.875 0 0  5.625 0 0  10 5.625 0  0 5.625 0  5.625 10 0  3.125 0 0  1.875 10 0  10 9.375 0  9.375 10 0  0 9.375 0  4.375 10 0  3.444137048810791 4.478405675214477 0  8.74618709364416 3.128635861568952 0  8.738826608286892 1.886261651223851 0  2.573669209433039 0.616680323845478 0  2.522781584968567 1.844522657134893 0  1.527115617392484 4.768666410104626 0  2.8125 9.43806671659171 0  2.398441898706021 4.702034725996353 0  1.915624844741465 8.7465046343862 0  2.565113444224413 8.145669255069771 0  9.382187377079948 8.742810580703335 0  6.733871262473624 7.386452849986582 0  9.385844803683909 2.50361613959506 0  3.904604634424869 3.320083797567698 0  4.952727957411181 2.336780533443504 0  1.276834988327237 9.392251419363062 0  6.800509752791006 4.471193157452792 0  7.306309907099386 8.471947145773347 0  6.537216704528388 5.531625642578874 0  7.371473270836095 5.545308958046653 0  3.546602703168288 7.64317321406155 0  3.828107599784181 1.910078079268086 0  1.342555399392962 3.013362749064504 0  1.206821491497361 1.872776676101541 0  0.5769084626609742 2.389014696033135 0  9.419599850172359 3.697903345846763 0  9.311381185428738 1.313708028946744 0  3.249100715311912 1.296551895127531 0  8.692454969321656 0.6947818128396638 0  2.828407574756107 6.759854751292194 0  0.5716884255903881 1.234925952412458 0  2.239357837951415 6.018510816415389 0  0.609052490321687 5.079138898173932 0  1.45564836539006 5.332916043198249 0  5.269080422659868 9.512850463559674 0  2.732165275290277 3.360727555199645 0  1.313643185932573 7.117585065113403 0  0.5603178963065959 7.433459691415289 0  1.264745468554045 8.148411519621547 0  5.322769828642348 0.5096588854080794 0  0.5554619021653749 8.783932478787106 0  8.544164743213932 5.572190078245881 0  7.722514386552905 5.98182194893689 0  5.581093781507468 1.457449556146221 0  8.169892779632299 8.64246205647742 0  7.768863333557405 9.501538765786831 0  4.991671906942256 7.588026397971917 0  8.82348343250001 9.459146765518989 0  8.187357621454453 4.769053887276899 0  8.265717395092183 1.639799677919589 0  1.868281829562149 3.727508698592418 0  6.88796022557182 0.7478643970706418 0  5.022282678782565 3.477559532613619 0  4.636824246213867 2.761639576703376 0  4.901370484234742 1.818536638424832 0  1.174793129240801 6.060068945137116 0  5.460492491494645 8.516804942487026 0  1.380914535906892 4.2368704148823 0  4.987189847606268 6.513702901741831 0  4.407379426822672 1.031364759954965 0  4.570839565533561 7.136214119286898
[...]
<CellData  Scalars="detF"> 
<DataArray  type="Float64"  Name="detF"  format="ascii">9.2494157938571731e-01   1.0237539246896425e+00   9.1422353219966457e-01   1.0425997849438102e+00   3.2637320099875283e-01   9.3387057039073329e-01   9.8812119561543799e-01   3.2737204491398875e-01   7.7774452376685432e-01   9.2938842981501846e-01   1.0545201029629352e+00   1.0443297292555276e+00   1.0317250177926722e+00   1.0456685134178476e+00   1.0455688415275273e+00   3.4260559000497048e-01   1.0430308042364140e+00   9.9559461475090461e-01   9.3158650677461174e-01   3.1775971127804226e-01   4.0734923275216944e-01   1.0489549832463170e+00   9.2072703369638653e-01   1.0283480818483426e+00   8.7326400655990910e-01   9.0135579974790403e-01   9.1842789028177552e-01   9.2327646519802198e-01   1.0434571815592046e+00   9.3397963893039815e-01   9.5103778804647143e-01   1.0433536393037413e+00   3.1659379107510105e-01   9.0080037670192947e-01   1.0433716938451540e+00   9.1433642033309037e-01   1.0384356344547907e+00   9.1110142070198707e-01   9.2058330055698789e-01   9.3516155537993728e-01   9.9744095163081403e-01   9.7103140878102889e-01   9.8323366781240995e-01   1.0435194086545818e+00   7.0810624633670638e-01   8.8299054553356515e-01   8.5707913635376809e-01   1.0395557797645876e+00   8.9699934254650249e-01   1.0451550430829595e+00   1.0265069443547139e+00   1.0100297813438102e+00   9.4759631151018353e-01   1.0426015840700864e+00   8.1908429831403851e-01   1.0131908870117456e+00   9.3466883039045867e-01   8.9478462439186268e-01   1.0486063730209072e+00   1.0382548083039926e+00   1.0305724611253588e+00   7.4594915608404566e-01   9.0465966886864613e-01   5.2401139567737953e-01   9.2326858718674609e-01   9.2383425531447316e-01   8.8985151634036774e-01   1.0384107585592668e+00   1.0362359057788344e+00   9.2512487110664665e-01   1.0193203796312846e+00   1.0161831738178786e+00   1.0049110686543785e+00   9.3950046278855082e-01   1.0347774450566298e+00   1.0503979411214401e+00   1.0326611905476444e+00   1.0460074794825360e+00   1.0452846600070798e+00   1.0439691298031402e+00   9.2096559111235266e-01   9.2887274083642146e-01   1.0448992931402146e+00   1.0404652079036663e+00   1.0424972979491518e+00   9.3630349515394973e-01   8.6340919812757511e-01   1.0433573837302128e+00   1.0537019596979027e+00   1.0428935772406773e+00   1.0399191708316757e+00   1.0474798943074930e+00   1.0158092827810392e+00   9.4640679477759715e-01   8.9747693750908131e-01   9.7882939661560353e-01   9.0043615386518949e-01   1.0557837078745564e+00   9.0855379782512757e-01   1.0191761054016146e+00   1.0261358438694244e+00   1.0077056801899025e+00   1.0450002445956186e+00   1.0209214997924165e+00   1.0562253844034211e+00   1.0430947583258416e+00   1.0440767647568860e+00   1.0430995315444669e+00   1.0498042586508713e+00   1.0368498701963775e+00   1.0288621723995257e+00   1.0420204252793350e+00   1.0440331362639537e+00   1.0297288419063091e+00   1.0468299649514419e+00   1.0472785946078618e+00   1.0482323817671979e+00   1.0395069818986211e+00   1.0379347395265146e+00   1.0431098800959866e+00   1.0055851634594160e+00   1.0063593292654418e+00   1.0435738112047486e+00   1.0413774911443756e+00   1.0380764983803257e+00   1.0442819392714380e+00   1.0318195249688327e+00   1.0094900081212912e+00   1.0383262200834580e+00   1.0540430948123249e+00   1.0529661528858241e+00   1.0421962262662965e+00   9.5217565807387383e-01   9.1171605702280845e-01   8.7975802714524043e-01   1.0037286013320923e+00   1.0436913850203069e+00   1.0164650429271267e+00   9.8562130928889169e-01   1.0353466254540766e+00   1.0292417081562411e+00   1.0412814860033164e+00   1.0451230703498300e+00   1.0447121863805540e+00   1.0456048464034267e+00   1.0407266271317759e+00   1.0239167563614489e+00   1.0055698149003944e+00   1.0348592511983750e+00   4.9886668947143759e-01   8.9417393124607203e-01   1.0446131904552729e+00   1.0392246832299448e+00   1.0406929331026900e+00   1.0450587291010964e+00   1.0407081824237729e+00   1.0249148982547784e+00   1.0439815255210469e+00   1.0375602241190176e+00   1.0431137617677653e+00   1.0433427375555830e+00   1.0386346543188039e+00   1.0426573411218920e+00   1.0305097016890854e+00   1.0434038865386073e+00   1.0402092137085239e+00   1.0429421089489872e+00   1.0394398910690485e+00   1.0453087344397729e+00   1.0454977120735147e+00   1.0445485954648710e+00   1.0369866231988378e+00   1.0212453944551294e+00   1.0307061140535880e+00   1.0311551578360230e+00   1.0309485911677245e+00   1.0373874657028095e+00   1.0351553093077743e+00   1.0464982521079771e+00   1.0461671900526912e+00   1.0550549917138166e+00   1.0437135294477262e+00   1.0460039349211521e+00   1.0409857455726343e+00   1.0431609697732056e+00   1.0392527135842915e+00   1.0408291238595482e+00   1.0544253655379150e+00   1.0528061718581800e+00   1.0392618411945782e+00   1.0357015365845268e+00   1.0423404298061461e+00   1.0480868876736533e+00   1.0295014518256040e+00   1.0232273951079438e+00   9.2991612439957827e-01   9.5952294313185804e-01   1.0401857233151570e+00   1.0367065899220405e+00   1.0502489125873331e+00   1.0436454847463543e+00   1.0254600286954114e+00   1.0461932051045932e+00   1.0294159753474847e+00   1.0416391771782307e+00   1.0325136217765398e+00   1.0364812478397172e+00   1.0064379325616823e+00   9.4846786737915667e-01   1.0263682514702051e+00   1.0442595717858010e+00   1.0227939907978472e+00   1.0265514493893995e+00   1.0346182608226688e+00   1.0035242579310568e+00   9.9565396069857037e-01   1.0502434800165423e+00   1.0476561121932739e+00   1.0504309933765115e+00   1.0333953265069198e+00   1.0370116510217267e+00   1.0429946003901842e+00   1.0423532121349031e+00   1.0335616536770260e+00   1.0328981043765109e+00   1.0392394366925353e+00   1.0048558573502027e+00   1.0143361374410025e+00   1.0322513612896282e+00   1.0428870735046079e+00   1.0365737122929088e+00   1.0440084608704248e+00   1.0298079858999072e+00   1.0438192245564328e+00   1.0434285024228085e+00   1.0505167914777869e+00   8.8058632455469543e-01   9.3899483266585715e-01   1.0440355157723797e+00   1.0439917721589365e+00   1.0428922990047957e+00   1.0363549593952728e+00   1.0380573769859480e+00   1.0351640020610258e+00   1.0509194878066597e+00   1.0579522459482753e+00   1.0443193557235380e+00   1.0439699945695637e+00   1.0357894812805821e+00   1.0428132693993371e+00   9.0616631320948260e-01   9.7256440620987494e-01   1.0461032855091204e+00   8.6737909612393616e-01   9.5300080793232200e-01   8.9078933431920126e-01   8.4317869265014667e-01   1.0007679949638844e+00   1.0107758842056931e+00   1.0437964794805170e+00   1.0427399986101864e+00   1.0453406016526798e+00   1.0449447874180458e+00   1.0493800725083624e+00   1.0479025826966200e+00   1.0520959789954796e+00   1.0506399706488436e+00   1.0233127930991885e+00   1.0302725264190580e+00   1.0472349877080676e+00   1.0433786478482059e+00   1.0458784595301984e+00   1.0505190354630940e+00   1.0504665217655169e+00   1.0495807795614338e+00   1.0480653304690195e+00   9.3669090294601853e-01   9.3362944902869238e-01   1.0218731751610133e+00   1.0235572133711550e+00   1.0483475589149840e+00   1.0472587570357188e+00   1.0443310922612905e+00   1.0416017466015541e+00   1.0424206198071766e+00   9.7331070354744054e-01   1.0370036209326861e+00   1.0343547910790600e+00   1.0162727497015485e+00   1.0447888413497917e+00   1.0507515931563263e+00   1.0499718017065500e+00   1.0515888096316455e+00   1.0289390252625468e+00   1.0255627327792605e+00   1.0535509092461486e+00   1.0378520536938194e+00   1.0331513551579807e+00   1.0124316118716401e+00   1.0468398636024745e+00   1.0435893749344447e+00   1.0433092020964430e+00   1.0411705885597826e+00   1.0514336954834265e+00   1.0458600074176672e+00   1.0400026003714591e+00   1.0438055306558152e+00   1.0274487000926937e+00   1.0298256853149699e+00   1.0277766661023122e+00   1.0521493266789319e+00   1.0454987610884428e+00   1.0371008094857150e+00   1.0353638241010308e+00   1.0415231222174208e+00   1.0429677141847473e+00   1.0335688585066205e+00   1.0388407724911264e+00   1.0535842078196915e+00   1.0521982694896570e+00   1.0507636524450927e+00   1.0567762385131225e+00   1.0532355147878709e+00   1.0327633639264628e+00   1.0420649312678678e+00   1.0278728171112925e+00   1.0321895554636495e+00   1.0505977216044513e+00   9.7333898054484824e-01   9.8059469583321046e-01   1.0454498035012407e+00   1.0431170518846493e+00   1.0434497252620987e+00   1.0414628850291763e+00   1.0478730945007475e+00   1.0445681694996547e+00   1.0409910516093301e+00   1.0406216732085729e+00   1.0442876860407362e+00   1.0377883326032176e+00   1.0455628807759101e+00   1.0444023913511407e+00   1.0071512195051171e+00   1.0202784299420788e+00   1.0426890633485746e+00   1.0453647781886815e+00   1.0421745757806806e+00   1.0430011649065376e+00   1.0330984244190113e+00   1.0177598948375883e+00   1.0214059555370474e+00   1.0449253916922470e+00   1.0199705153602510e+00   9.6332417000233450e-01   1.0236913623260029e+00   1.0246412937249265e+00   1.0391886454312966e+00   9.9873067547328020e-01   9.8309102705455265e-01   1.0453652814158585e+00   1.0450982731919614e+00   9.5869898570226142e-01   8.8679085810066138e-01   1.0050724483236111e+00   1.0152267157023454e+00   1.0393485533222637e+00   1.0381713898609513e+00   1.0407725557016161e+00   1.0382283740842886e+00   1.0481039328668822e+00   1.0441077296004537e+00   1.0432162063041954e+00   1.0419740814322545e+00   1.0433555082148851e+00   1.0521922181703687e+00   1.0403873119509668e+00   1.0346848008127210e+00   1.0433823607959014e+00   1.0440343028867174e+00   1.0382709662151053e+00   1.0399650189170142e+00   1.0209130020730104e+00   1.0366498531077435e+00   1.0328249715145525e+00   1.0408213296039475e+00   1.0444509910037532e+00   1.0533486235745932e+00   1.0341114402769200e+00   1.0435486990427629e+00   1.0487433496931651e+00   1.0239466050879691e+00   9.8844756555333346e-01   1.0435834899435701e+00   1.0460956421350727e+00   1.0405282890743119e+00   1.0372709313295463e+00   1.0427581416533820e+00   1.0518322732031780e+00   1.0475355923193397e+00   1.0322831783107889e+00   1.0450543321491463e+00   1.0418098306911527e+00   1.0383415062674282e+00   1.0420993629768616e+00   1.0401882890341598e+00   1.0347786454069552e+00   1.0368495286659725e+00   1.0412261824769793e+00   1.0451507390709494e+00   1.0418517436026966e+00   1.0072238102744087e+00   1.0197307032833618e+00   1.0269862536245895e+00   1.0309265458830481e+00   1.0420914351501933e+00   1.0403153964566112e+00   1.0419998748065888e+00   1.0393543735024009e+00   1.0449343040029213e+00   1.0443365855985771e+00   1.0504728297963062e+00   9.1830197824736992e-01   9.2996834675690421e-01   9.7207972452495617e-01   1.0119993686686533e+00   1.0314252158568662e+00   1.0398166096455166e+00   1.0421266296405887e+00   1.0291304874209566e+00   1.0387093841259656e+00   1.0479450397443653e+00   1.0491752963703305e+00   1.0435827374573219e+00   9.3569215026556363e-01   9.6023623122289403e-01   1.0454924731131734e+00   1.0452232853759562e+00   1.0372217307452352e+00   1.0254777351045388e+00   1.0426764415441026e+00   1.0432978470684988e+00   1.0423382953520306e+00   1.0469304738281602e+00   1.0435985600799167e+00   1.0435801165415257e+00   1.0419727735699935e+00   1.0377822971458202e+00   1.0394081132880217e+00   1.0412634892579351e+00   1.0451118542608693e+00   1.0454357376095977e+00   1.0485208758735560e+00   1.0435063835924787e+00   1.0502988229247674e+00   1.0489037289702323e+00   3.1997455910681427e-01   9.6322110465358379e-01   1.0091332231164896e+00   1.0175628015632667e+00   1.0083341769258263e+00   1.0140574480633744e+00   1.0515804351406195e+00   1.0567688983957393e+00   1.0520830985323519e+00   1.0559928339600624e+00   1.0561561552467160e+00   8.8984204204181727e-01   8.6729413359730911e-01   1.0426992687746026e+00   1.0455625111889761e+00   1.0479356815300598e+00   1.0305286025326903e+00   1.0113092713184713e+00   1.0462501367143238e+00   1.0458476310072011e+00   1.0443614259922716e+00   1.0436431577117065e+00   1.0410029313681410e+00   1.0346404080591700e+00   1.0430962569262847e+00   1.0397522380148094e+00   1.0276422578325815e+00   1.0408188542167789e+00   1.0062035573180619e+00   1.0067862771504721e+00   1.0340535597568319e+00   1.0037908338791799e+00   9.1956652136284778e-01   9.5714913863996531e-01   1.0428188344292539e+00   1.0338946227067145e+00   1.0401996830675930e+00   1.0451285464000801e+00   8.5728907370745833e-01   6.8218179966909076e-01   1.0393685170410014e+00   1.0387032876853164e+00   1.0435651964070356e+00   1.0457790870545964e+00   1.0459229839764936e+00   1.0458381376223931e+00   1.0456038583555447e+00   1.0447816536508658e+00   1.0422444104586426e+00   1.0432214212008917e+00   1.0542895069211089e+00   1.0456878052378493e+00   1.0496911306859911e+00   1.0428286556263451e+00   1.0406819560184131e+00   1.0209991901529485e+00   1.0027456798164927e+00   1.0511323473187864e+00   1.0430291223493473e+00   1.0387988142234563e+00   1.0451999274996524e+00   1.0404535003591415e+00   1.0540319514352334e+00   1.0513949152995918e+00   1.0449785168187009e+00   1.0508998006185553e+00   1.0254085560156074e+00   1.0086949563825871e+00   1.0389620289888943e+00   1.0392847559431349e+00   1.0415991184463056e+00   1.0425894449234967e+00   1.0301307533792381e+00   1.0215838456211295e+00   1.0502930551609022e+00   1.0503754730458370e+00   1.0482035769704292e+00   1.0450946540201986e+00   1.0381153416967039e+00   1.0379551815587147e+00   1.0049895245981071e+00   1.0186378699956418e+00   9.7464875235791504e-01   1.0055449557323330e+00   1.0414192694319879e+00   1.0503199524975031e+00   1.0455855023212091e+00   1.0275377528789595e+00   1.0226621685707651e+00   9.3853860540405643e-01   8.9321864056568356e-01   9.8952754872418802e-01   9.2360645798710450e-01   7.7157981877093862e-01   8.9582799007270986e-01   1.0287456932964587e+00   1.0157505834121014e+00   1.0473666513150028e+00   1.0465473635354063e+00   1.0487208570475890e+00   1.0485312648090661e+00   1.0483534922758901e+00   1.0216721751848521e+00   1.0301655586510781e+00   1.0426184139631531e+00   1.0450266577128624e+00   1.0466810007431198e+00   1.0268540919196247e+00   1.0300117391684580e+00   1.0441417899698993e+00   1.0449949959948923e+00   1.0279700392280757e+00   9.9579046767335777e-01   1.0397265921539516e+00   1.0424933286458236e+00   1.0373358736150451e+00   1.0440075700109750e+00   1.0441869275068638e+00   1.0446237111239487e+00   1.0432694333722548e+00   1.0316444389796400e+00   1.0404554176219298e+00   1.0379244826722509e+00   1.0428429287931698e+00   1.0427752577549383e+00   1.0461006717339227e+00   1.0392237080059856e+00   1.0417740648443687e+00   1.0437462978853131e+00   1.0362795192843095e+00   1.0256361559891292e+00   1.0371087618204193e+00   1.0273359628259942e+00   1.0302746202390485e+00   1.0326195724513278e+00   1.0362506828149480e+00   1.0377539626683794e+00   1.0335175906292229e+00   1.0125615676044759e+00   1.0395934637668636e+00   1.0313715484152957e+00   9.1938643540811527e-01   9.9590322298157385e-01   1.0449894204585859e+00   1.0432272619032854e+00   1.0420421267478222e+00   1.0430206387788918e+00   1.0426730696723734e+00   1.0435079921798467e+00   1.0381420377940105e+00   1.0384989288437003e+00   1.0428256325774525e+00   1.0431844122140610e+00   1.0347629123214939e+00   1.0346410940116737e+00   1.0423051886456469e+00   1.0419040176075860e+00   1.0419461066777964e+00   1.0402932320101586e+00   1.0361516148199843e+00   1.0437366638628505e+00   1.0443855116010958e+00   1.0361662360722779e+00   1.0460804398024837e+00   1.0452560847682690e+00   1.0454758527535384e+00   1.0473328619343318e+00   1.0450162027968675e+00   1.0380102928837647e+00   1.0266851821926388e+00   1.0213289792850389e+00   1.0278815895096054e+00   1.0230826644912270e+00   1.0316356715984905e+00   1.0478491012415529e+00   1.0473571307544598e+00   1.0523015927004369e+00   1.0489032174734900e+00   1.0241421237176076e+00   1.0394650127405254e+00   1.0531656698141951e+00   1.0471938476519767e+00   1.0381330484728157e+00   1.0433781562009072e+00   1.0377538552460261e+00   1.0282449856527398e+00   1.0295027279377562e+00   1.0412471249624669e+00   1.0316017540544433e+00   1.0371565037616868e+00   1.0451971246155440e+00   9.9993611986051645e-01   1.0284200534853072e+00   1.0292191171571343e+00   1.0371173140043342e+00   1.0383949407307895e+00   1.0366240106771076e+00   1.0491308098092249e+00   1.0455842553769701e+00   1.0470408810441869e+00   1.0416448795292736e+00   1.0441439810025750e+00   6.4890154087188257e-01   8.8429869705177755e-01   1.0440974026335577e+00   1.0397460815188897e+00   1.0548813953877574e+00   1.0488858129125387e+00   1.0394713044125889e+00   1.0290756061085982e+00   1.0387432445856819e+00   1.0394013040355861e+00   1.0433144519274749e+00   1.0434339707899518e+00   1.0540071869837537e+00   1.0515568252287575e+00   1.0366875899995898e+00   1.0522475308544881e+00   1.0547708131319258e+00   1.0365806784885578e+00   1.0467823063496848e+00   1.0368569641403913e+00   1.0342281383194631e+00   1.0357360905592468e+00   1.0409251324898174e+00   1.0420923000043223e+00   1.0247102494488183e+00   9.9268425611022737e-01   9.7850002155144189e-01   1.0465797447756009e+00   1.0449957600153126e+00   1.0466788877066227e+00   1.0488596762887614e+00   1.0485114843925241e+00   8.8258607381354559e-01   8.7054297342535258e-01   1.0328010350598953e+00   1.0352601232249623e+00   1.0507088850266759e+00   1.0492964114706353e+00   1.0097198911603826e+00   1.0295194458649279e+00   1.0352835295363338e+00   1.0264201414788632e+00   1.0520775416367629e+00   1.0503243201851844e+00   1.0387123083603123e+00   1.0408359432710930e+00   1.0530701523605006e+00   1.0578550900165167e+00   1.0490607801891860e+00   1.0478625225535614e+00   1.0507166338758536e+00   1.0500927714283057e+00   1.0298787530670075e+00   1.0197882391150677e+00   1.0286918035104524e+00   1.0352762715558093e+00   1.0576534121310104e+00   1.0611645887646111e+00   1.0459128165532163e+00   1.0446851522845648e+00   1.0520754734062496e+00   1.0494374377765745e+00   1.0498493434781970e+00   1.0450830326146821e+00   1.0440456262658067e+00   1.0412439607541122e+00   1.0448487827992261e+00   1.0174785063742251e+00   1.0358390290661539e+00   1.0269366459435225e+00   1.0234799258534817e+00   1.0430536862781103e+00   1.0392498864564235e+00   1.0385121794050984e+00   1.0359387201563746e+00   1.0453842134972957e+00   1.0511522140639686e+00   1.0435917156514021e+00   1.0488137970119726e+00   1.0452829042429082e+00   1.0449192003207761e+00   1.0382886988151547e+00   1.0413385114961111e+00   1.0266552997519531e+00   9.8162816094783889e-01   1.0196890236998686e+00   9.7508408730212415e-01   1.0304883513362955e+00   1.0404364150195491e+00   1.0475832493241883e+00   1.0482907897250999e+00   1.0427835884142904e+00   1.0451599499800550e+00   1.0393239258228741e+00   1.0399681350872034e+00   1.0437963587683028e+00   1.0379836811310783e+00   1.0284391779048174e+00   1.0117577510044373e+00   1.0552775061589037e+00   1.0565323372541424e+00   1.0174894014852702e+00   9.9704841863915827e-01   9.2745260372403771e-01   4.4277747945545154e-01   1.0533638233050135e+00   1.0546736326533555e+00   1.0196987868140290e+00   1.0151969210174487e+00   1.0510174150570513e+00   1.0410886779208244e+00   1.0366361312992540e+00   1.0470848486722319e+00   1.0492574945282414e+00   1.0457571049468459e+00   1.0465568657926267e+00   1.0408248866794154e+00   1.0430105067777820e+00   1.0435461469878275e+00   1.0430230233287137e+00   1.0429859430436774e+00   1.0315251271455104e+00   1.0358383021995139e+00   1.0387692250792324e+00   1.0387098420706256e+00   7.5395389846393912e-01   9.5655029497008637e-01   1.0260066581089051e+00   1.0257577780436582e+00   1.0509226987317599e+00   1.0469932723533772e+00   1.0489706977361646e+00   1.0529028606674506e+00   9.6352616479715614e-01   9.6114737911471637e-01   1.0441206212617902e+00   1.0344395358089113e+00   1.0332607048279918e+00   1.0277145004877113e+00   1.05065487662748