<?xml version="1.0"?>
<VTKFile type="UnstructuredGrid"  version="0.1"  >
<UnstructuredGrid>
<Piece  NumberOfPoints="12613" NumberOfCells="24648">
<Points>
<DataArray  type="Float64"  NumberOfComponents="3"  format="ascii">0 10 0  0 0 0  10 0 0  10 10 0  5.992114701314478 5.125333233564304 0  6 5 0  5.992114701314478 4.874666766435696 0  5.968583161128631 4.751310112835145 0  5.929776485888252 4.631875447315323 0  5.876306680043863 4.518246325898284 0  5.809016994374947 4.412214747707527 0  5.728968627421411 4.315452894071311 0  5.637423989748689 4.22948675722421 0  5.535826794978997 4.155672074497985 0  5.425779291565072 4.09517294753398 0  5.309016994374947 4.048943483704846 0  5.187381314585724 4.017712749271311 0  5.062790519529313 4.001973271571728 0  4.937209480470687 4.001973271571728 0  4.812618685414275 4.017712749271311 0  4.690983005625053 4.048943483704846 0  4.574220708434928 4.09517294753398 0  4.464173205021003 4.155672074497985 0  4.362576010251311 4.229486757224211 0  4.271031372578588 4.315452894071312 0  4.190983005625053 4.412214747707528 0  4.123693319956137 4.518246325898285 0  4.070223514111748 4.631875447315322 0  4.031416838871369 4.751310112835146 0  4.007885298685522 4.874666766435696 0  4 5 0  4.007885298685522 5.125333233564304 0  4.031416838871369 5.248689887164855 0  4.070223514111749 5.368124552684678 0  4.123693319956137 5.481753674101715 0  4.190983005625053 5.587785252292473 0  4.271031372578589 5.684547105928689 0  4.36257601025131 5.770513242775789 0  4.464173205021003 5.844327925502015 0  4.574220708434927 5.904827052466019 0  4.690983005625053 5.951056516295154 0  4.812618685414275 5.982287250728689 0  4.937209480470687 5.998026728428272 0  5.062790519529313 5.998026728428272 0  5.187381314585725 5.982287250728689 0  5.309016994374947 5.951056516295154 0  5.425779291565073 5.90482705246602 0  5.535826794978997 5.844327925502015 0  5.63742398974869 5.770513242775789 0  5.728968627421412 5.684547105928688 0  5.809016994374947 5.587785252292473 0  5.876306680043863 5.481753674101715 0  5.929776485888252 5.368124552684678 0  5.968583161128631 5.248689887164855 0  5 10 0  0 5 0  10 5 0  5 0 0  0 2.5 0  2.5 0 0  0 7.5 0  10 7.5 0  7.5 10 0  10 2.5 0  7.5 0 0  2.5 10 0  7.485014227815469 7.485014227815468 0  2.624291547813317 2.470127454275751 0  2.624291547813306 7.529872545724244 0  7.485014227815469 2.514985772184531 0  5.501322239123305 1.989844925476205 0  5.379553576772174 8.004475929833614 0  8.009762413667167 5.50092484241762 0  2 5.188744001760954 0  8.749910705909175 3.75 0  8.735102992990898 1.264897007009102 0  1.298640613344511 8.70135938665549 0  1.298640613344514 1.298640613344514 0  8.735102992990898 8.735102992990898 0  3.75 10 0  3.912893232829084 1.33196018051077 0  1.32486817239184 3.602721496273811 0  0 6.25 0  7.33800602899442 4.185061400278719 0  1.46012754946627 6.586509713609103 0  6.25 10 0  4.107618314163975 2.746101144635254 0  8.746887821637173 6.757315261531288 0  6.757712161714717 1.253114543328782 0  6.652390351926942 8.636871422196799 0  4.082811893307114 7.297579393422678 0  2.77185775043354 3.935002032188672 0  4.170229426070917 8.680048884324506 0  6.279207553947785 3.060640586921346 0  6.243921113202843 6.981280825327044 0  2.943794974478871 6.190871022350711 0  0 3.75 0  1.25 0 0  0 1.25 0  0 8.75 0  3.75 0 0  1.25 10 0  8.75 0 0  10 3.75 0  10 1.25 0  10 6.25 0  10 8.75 0  8.75 10 0  6.25 0 0  8.727654225028649 2.507537004222282 0  2.534024448053167 8.763521267692715 0  2.675330070144278 1.229368534631439 0  6.938317963016699 6.016222388396734 0  1.160966450995929 2.452397487456289 0  5.625 9.085018488154775 0  0.9534467980924162 5.587666637777538 0  9.059920331215721 5.729227516799859 0  5.729968520679604 0.9401057243527156 0  1.092141083367926 7.622001080218721 0  7.681674540101278 8.941941402997672 0  5.126847797924912 2.962082287113166 0  5.072611876314043 7.02470488787669 0  0.9313086115777203 4.556301549197934 0  2.984525138894107 4.930394751680348 0  8.718829002404984 4.768760792108237 0  8.475490130958471 7.744627089847896 0  7.744824371465027 1.524707150658661 0  7.780225167097711 6.538995998896642 0  3.32557460434723 8.201312828626905 0  6.953994462708644 5.060443590815006 0  6.429686829531911 2.133376767868373 0  4.85671980606795 1.299671875972767 0  3.266001241014683 3.14535385856259 0  1.948129212827459 8.100524007339061 0  1.898758825823051 1.95534337194406 0  1.958825626380582 0.7043680802078647 0  1.884535848570219 9.364356647009144 0  9.360191246290798 1.889986302787311 0  9.374824554239121 8.125 0  8.125 0.6251754457608796 0  8.110103260619079 3.140030154772246 0  9.367462718860255 3.117506830667309 0  9.360276396535061 9.360276396535061 0  10 0.625 0  9.375 0 0  0.6718845514179709 9.328115448582029 0  0.6718845514179738 0.671884551417974 0  0.6252707365992336 6.872955555725 0  3.125 10 0  1.930626943878649 4.281569467265474 0  2.166098978946731 3.256154061197009 0  0 3.125 0  3.24490641379911 1.874227206196345 0  4.375 0 0  6.24528584502123 7.859128418502952 0  3.372555109391759 9.122213048817835 0  7.125115810101655 3.32481376209067 0  6.518937326666101 3.931294464879644 0  0.6294854495481924 1.803884990381194 0  9.374955352954586 4.278924226850261 0  3.340086357073421 0.7260714220376305 0  4.407675578536106 1.984306553857061 0  6.995329811007009 9.368718761903855 0  7.030488805927661 6.824106380937062 0  1.832745784532399 7.302060510260434 0  3.793856604979397 6.45548174406993 0  3.302730492366902 7.094630057496399 0  2.264317047872121 6.622528084928073 0  0 8.125 0  3.619764789488634 3.858170131500536 0  4.809533851079751 9.198946189517734 0  9.235851937969425 7.360812901894209 0  7.399870113940684 0.848812574976799 0  8.125 10 0  8.12818958240511 4.24088624549136 0  1.656219984581841 5.859105462713216 0  7.66194676072481 4.849087268447366 0  4.56205730738654 7.961273900611192 0  7.832141117865442 8.179894501003959 0  8.42963329327514 6.099017498410762 0  7.114170644544133 1.887196636064217 0  6.875 0 0  4.512850758385448 3.346678772948598 0  6.958450246993527 7.981246762236177 0  0.7206281542170559 8.252510380020961 0  9.262570163491095 0.7374298365089046 0  4.0625 0.6377232150431691 0  0.7588267982127279 3.096534204957019 0  8.299940316843887 9.30479443431005 0  4.482292174982793 6.629885056144825 0  6.295435933129137 9.298012546264818 0  6.227566314612962 6.237161009365162 0  5.644150190639389 6.622223383766955 0  3.356407443190571 5.573307699636366 0  8.155690032825335 7.125761127739697 0  8.104157944886294 2.148203430801016 0  4.02637088174769 9.3611182473956 0  6.116309641530274 1.515348705003571 0  2.620835484783206 5.549538932621628 0  5.978678459905598 8.494101919232964 0  6.370549931657234 0.6805676201521447 0  10 6.875 0  9.319293531819399 6.369901553367093 0  5.667616539986666 3.425394228399495 0  5.672053398084052 7.374877159110779 0  0.6870138590775676 3.897472165971907 0  1.828803548322936 2.64759741429768 0  0.6723431162417803 6.200433195389051 0  5.894273988853201 2.522330329344644 0  6.850458438133735 2.717866506790418 0  4.941950255974137 8.528891095897622 0  4.742449613607294 0.6293405631033336 0  9.35097262831559 4.931152233783056 0  7.769606751328654 3.696200900749275 0  0 4.375 0  1.316521962984352 0.6418967882543624 0  3.478252664165245 2.506093101477126 0  3.945801058433374 8.091518976804174 0  2.046950909185547 1.335529230658999 0  6.875 10 0  10 4.375 0  0 1.875 0  0 6.875 0  0.625 0 0  0 0.625 0  0.625 10 0  10 3.125 0  8.125 0 0  10 8.125 0  10 1.875 0  1.875 0 0  5.625 0 0  10 5.625 0  0 5.625 0  5.625 10 0  3.125 0 0  1.875 10 0  10 9.375 0  9.375 10 0  0 9.375 0  4.375 10 0  3.444137048810791 4.478405675214477 0  8.74618709364416 3.128635861568952 0  8.738826608286892 1.886261651223851 0  2.573669209433039 0.616680323845478 0  2.522781584968567 1.844522657134893 0  1.527115617392484 4.768666410104626 0  2.8125 9.43806671659171 0  2.398441898706021 4.702034725996353 0  1.915624844741465 8.7465046343862 0  2.565113444224413 8.145669255069771 0  9.382187377079948 8.742810580703335 0  6.733871262473624 7.386452849986582 0  9.385844803683909 2.50361613959506 0  3.904604634424869 3.320083797567698 0  4.952727957411181 2.336780533443504 0  1.276834988327237 9.392251419363062 0  6.800509752791006 4.471193157452792 0  7.306309907099386 8.471947145773347 0  6.537216704528388 5.531625642578874 0  7.371473270836095 5.545308958046653 0  3.546602703168288 7.64317321406155 0  3.828107599784181 1.910078079268086 0  1.342555399392962 3.013362749064504 0  1.206821491497361 1.872776676101541 0  0.5769084626609742 2.389014696033135 0  9.419599850172359 3.697903345846763 0  9.311381185428738 1.313708028946744 0  3.249100715311912 1.296551895127531 0  8.692454969321656 0.6947818128396638 0  2.828407574756107 6.759854751292194 0  0.5716884255903881 1.234925952412458 0  2.239357837951415 6.018510816415389 0  0.609052490321687 5.079138898173932 0  1.45564836539006 5.332916043198249 0  5.269080422659868 9.512850463559674 0  2.732165275290277 3.360727555199645 0  1.313643185932573 7.117585065113403 0  0.5603178963065959 7.433459691415289 0  1.264745468554045 8.148411519621547 0  5.322769828642348 0.5096588854080794 0  0.5554619021653749 8.783932478787106 0  8.544164743213932 5.572190078245881 0  7.722514386552905 5.98182194893689 0  5.581093781507468 1.457449556146221 0  8.169892779632299 8.64246205647742 0  7.768863333557405 9.501538765786831 0  4.991671906942256 7.588026397971917 0  8.82348343250001 9.459146765518989 0  8.187357621454453 4.769053887276899 0  8.265717395092183 1.639799677919589 0  1.868281829562149 3.727508698592418 0  6.88796022557182 0.7478643970706418 0  5.022282678782565 3.477559532613619 0  4.636824246213867 2.761639576703376 0  4.901370484234742 1.818536638424832 0  1.174793129240801 6.060068945137116 0  5.460492491494645 8.516804942487026 0  1.380914535906892 4.2368704148823 0  4.987189847606268 6.513702901741831 0  4.407379426822672 1.031364759954965 0  4.570839565533561 7.136214119286898
[...]
<PointData  Vectors="u"> 
<DataArray  type="Float64"  Name="u"  NumberOfComponents="3" format="ascii">0.0000000000000000e+00 0.0000000000000000e+00 0.0000000000000000e+00  0.0000000000000000e+00 0.0000000000000000e+00 0.0000000000000000e+00  0.0000000000000000e+00 0.0000000000000000e+00 0.0000000000000000e+00  0.0000000000000000e+00 0.0000000000000000e+00 0.0000000000000000e+00  -4.8370526977544526e-01 -6.3375406767863740e-02 0.0000000000000000e+00  -4.8961630431683062e-01 -1.6729144542119396e-02 0.0000000000000000e+00  -4.8392855510858912e-01 7.6506476912618082e-02 0.0000000000000000e+00  -4.7064169407637813e-01 1.3045531111974143e-01 0.0000000000000000e+00  -4.5863896412798338e-01 1.7229960394654487e-01 0.0000000000000000e+00  -4.2276134085760758e-01 2.4508688170269649e-01 0.0000000000000000e+00  -4.0407791894956840e-01 2.7651349313488838e-01 0.0000000000000000e+00  -3.4438855203744650e-01 3.4827250680412342e-01 0.0000000000000000e+00  -3.1293101756516245e-01 3.7571196083504982e-01 0.0000000000000000e+00  -2.7041814893201388e-01 4.0860818817479205e-01 0.0000000000000000e+00  -2.0937944970583000e-01 4.4202597686495348e-01 0.0000000000000000e+00  -1.6802964997927827e-01 4.6069624821881394e-01 0.0000000000000000e+00  -7.9131529626485897e-02 4.8332077452179378e-01 0.0000000000000000e+00  -4.3051588557494205e-02 4.8721589296042978e-01 0.0000000000000000e+00  4.1812027553529335e-02 4.8800603578866186e-01 0.0000000000000000e+00  8.0110026687718119e-02 4.8259433942842317e-01 0.0000000000000000e+00  1.6877718506363168e-01 4.6089131301281361e-01 0.0000000000000000e+00  2.0976702138120218e-01 4.4115369703814444e-01 0.0000000000000000e+00  2.5430782106121003e-01 4.1918883213068703e-01 0.0000000000000000e+00  3.2774101380584425e-01 3.6342353057966070e-01 0.0000000000000000e+00  3.5569686896029001e-01 3.3694579138418213e-01 0.0000000000000000e+00  3.8590378283316562e-01 3.0076468629772229e-01 0.0000000000000000e+00  4.3314387010157623e-01 2.2890162532145789e-01 0.0000000000000000e+00  4.4790843273561087e-01 1.9692653641859673e-01 0.0000000000000000e+00  4.7500714966739371e-01 1.1907098818115286e-01 0.0000000000000000e+00  4.8362984985199925e-01 7.2773419342430201e-02 0.0000000000000000e+00  4.8902254753428759e-01 -1.9357127540326750e-02 0.0000000000000000e+00  4.8450231796211213e-01 -7.0156766476336826e-02 0.0000000000000000e+00  4.7340382989345053e-01 -1.2107359895126918e-01 0.0000000000000000e+00  4.6125515096636271e-01 -1.6584691223456796e-01 0.0000000000000000e+00  4.2197172178086167e-01 -2.5036192256538986e-01 0.0000000000000000e+00  3.9239961827258790e-01 -2.9245947140953948e-01 0.0000000000000000e+00  3.5855874073777905e-01 -3.3248187155689568e-01 0.0000000000000000e+00  3.2488891785196117e-01 -3.6779920602821420e-01 0.0000000000000000e+00  2.4983720445461841e-01 -4.2069594184942977e-01 0.0000000000000000e+00  2.1866941932487446e-01 -4.3756037910712253e-01 0.0000000000000000e+00  1.5922997323662511e-01 -4.6226082207817576e-01 0.0000000000000000e+00  1.0407595496242930e-01 -4.7822619291065777e-01 0.0000000000000000e+00  2.7219385430781010e-02 -4.8729714263951129e-01 0.0000000000000000e+00  -1.5344354792581094e-02 -4.8903339610217789e-01 0.0000000000000000e+00  -1.0524033524558732e-01 -4.7851893921908967e-01 0.0000000000000000e+00  -1.6375383445740496e-01 -4.6067882491483519e-01 0.0000000000000000e+00  -1.9935712283333368e-01 -4.4612141622059270e-01 0.0000000000000000e+00  -2.6754262655109207e-01 -4.1045920339432990e-01 0.0000000000000000e+00  -3.0132113491659196e-01 -3.8669664058049780e-01 0.0000000000000000e+00  -3.6730343951243122e-01 -3.2376448386866313e-01 0.0000000000000000e+00  -3.8818448780365200e-01 -2.9784720411429855e-01 0.0000000000000000e+00  -4.3485979179928719e-01 -2.2592414886380657e-01 0.0000000000000000e+00  -4.4856572946622647e-01 -1.9198685009697855e-01 0.0000000000000000e+00  -4.7693557704603590e-01 -1.0852403888918004e-01 0.0000000000000000e+00  0.0000000000000000e+00 0.0000000000000000e+00 0.0000000000000000e+00  0.0000000000000000e+00 0.0000000000000000e+00 0.0000000000000000e+00  0.0000000000000000e+00 0.0000000000000000e+00 0.0000000000000000e+00  0.0000000000000000e+00 0.0000000000000000e+00 0.0000000000000000e+00  0.0000000000000000e+00 0.0000000000000000e+00 0.0000000000000000e+00  0.0000000000000000e+00 0.0000000000000000e+00 0.0000000000000000e+00  0.0000000000000000e+00 0.0000000000000000e+00 0.0000000000000000e+00  0.0000000000000000e+00 0.0000000000000000e+00 0.0000000000000000e+00  0.0000000000000000e+00 0.0000000000000000e+00 0.0000000000000000e+00  0.0000000000000000e+00 0.0000000000000000e+00 0.0000000000000000e+00  0.0000000000000000e+00 0.0000000000000000e+00 0.0000000000000000e+00  0.0000000000000000e+00 0.0000000000000000e+00 0.0000000000000000e+00  -9.7311018760166165e-02 -9.7334745898616196e-02 0.0000000000000000e+00  9.7893446212291804e-02 1.0235797271791511e-01 0.0000000000000000e+00  9.7757402190691095e-02 -1.0183717511408617e-01 0.0000000000000000e+00  -9.7392129549218928e-02 9.7771413740041876e-02 0.0000000000000000e+00  -3.0888034617801513e-02 1.5312702543120582e-01 0.0000000000000000e+00  -2.3498602861347150e-02 -1.5534737809106963e-01 0.0000000000000000e+00  -1.5300396522513798e-01 -3.0674793388916235e-02 0.0000000000000000e+00  1.5836183665530892e-01 -1.1923629158153988e-02 0.0000000000000000e+00  -7.8074499714385737e-02 3.7093082617861040e-02 0.0000000000000000e+00  -3.1976267698384853e-02 3.2046826606585560e-02 0.0000000000000000e+00  3.3367721979747994e-02 -3.3286722296679075e-02 0.0000000000000000e+00  3.3428270217011231e-02 3.3422935664675156e-02 0.0000000000000000e+00  -3.1889009136692743e-02 -3.1875459499853390e-02 0.0000000000000000e+00  0.0000000000000000e+00 0.0000000000000000e+00 0.0000000000000000e+00  3.5898386779615314e-02 8.6722629615593419e-02 0.0000000000000000e+00  8.0429252344343630e-02 4.2261060922780189e-02 0.0000000000000000e+00  0.0000000000000000e+00 0.0000000000000000e+00 0.0000000000000000e+00  -2.0853068080962822e-01 8.0756649982592715e-02 0.0000000000000000e+00  8.4961636119323239e-02 -5.0146296119894927e-02 0.0000000000000000e+00  0.0000000000000000e+00 0.0000000000000000e+00 0.0000000000000000e+00  9.1878835504015627e-02 2.1158863511281911e-01 0.0000000000000000e+00  -6.8774238014008768e-02 -4.4456331493819681e-02 0.0000000000000000e+00  -4.4523872130141008e-02 6.9011346050443123e-02 0.0000000000000000e+00  -4.7230795775433841e-02 -7.7344935641097068e-02 0.0000000000000000e+00  9.0866385169494385e-02 -2.0605812240211802e-01 0.0000000000000000e+00  2.0182391686829346e-01 1.0516502237530195e-01 0.0000000000000000e+00  2.8707828515415933e-02 -8.9866763606374439e-02 0.0000000000000000e+00  -1.4034357551191784e-01 2.0423195170485797e-01 0.0000000000000000e+00  -1.3491794229636900e-01 -2.0473762894614206e-01 0.0000000000000000e+00  2.0437803759384612e-01 -1.2551469756132597e-01 0.0000000000000000e+00  0.0000000000000000e+00 0.0000000000000000e+00 0.0000000000000000e+00  0.0000000000000000e+00 0.0000000000000000e+00 0.0000000000000000e+00  0.0000000000000000e+00 0.0000000000000000e+00 0.0000000000000000e+00  0.0000000000000000e+00 0.0000000000000000e+00 0.0000000000000000e+00  0.0000000000000000e+00 0.0000000000000000e+00 0.0000000000000000e+00  0.0000000000000000e+00 0.0000000000000000e+00 0.0000000000000000e+00  0.0000000000000000e+00 0.0000000000000000e+00 0.0000000000000000e+00  0.0000000000000000e+00 0.0000000000000000e+00 0.0000000000000000e+00  0.0000000000000000e+00 0.0000000000000000e+00 0.0000000000000000e+00  0.0000000000000000e+00 0.0000000000000000e+00 0.0000000000000000e+00  0.0000000000000000e+00 0.0000000000000000e+00 0.0000000000000000e+00  0.0000000000000000e+00 0.0000000000000000e+00 0.0000000000000000e+00  0.0000000000000000e+00 0.0000000000000000e+00 0.0000000000000000e+00  -5.5237218520200332e-02 4.7492238166511387e-02 0.0000000000000000e+00  4.6408943123071214e-02 -5.4318913425229896e-02 0.0000000000000000e+00  4.6361702419801469e-02 5.6870912114054449e-02 0.0000000000000000e+00  -2.2969061826190734e-01 -1.2695827635888990e-01 0.0000000000000000e+00  4.9925538982221400e-02 4.3504957848815286e-02 0.0000000000000000e+00  -1.4862568658195048e-02 -6.1293697554368344e-02 0.0000000000000000e+00  6.4538221335293161e-02 -1.4665632413657460e-02 0.0000000000000000e+00  -6.2452828144619457e-02 -1.7625193747847847e-02 0.0000000000000000e+00  -1.7647076225555097e-02 6.2588037541001021e-02 0.0000000000000000e+00  4.5810889441125449e-02 -4.0685065775841217e-02 0.0000000000000000e+00  -3.9169671597900121e-02 -4.3348577933206095e-02 0.0000000000000000e+00  -1.8930341088105047e-02 2.7725493565558734e-01 0.0000000000000000e+00  -9.8785308712224899e-03 -2.7928105140473197e-01 0.0000000000000000e+00  6.3567603619510721e-02 1.1149234851391561e-02 0.0000000000000000e+00  2.7977686407722169e-01 1.0197480107595778e-02 0.0000000000000000e+00  -9.2254202840800770e-02 8.4268677921546537e-03 0.0000000000000000e+00  -5.9083505972182496e-02 -5.4002121276615946e-02 0.0000000000000000e+00  -5.4109181847431548e-02 5.9386794396286538e-02 0.0000000000000000e+00  -1.3314884800552015e-01 -8.3453309402183457e-02 0.0000000000000000e+00  6.5500159443012893e-02 -1.0268435078177594e-01 0.0000000000000000e+00  -2.9041446171691887e-01 -9.3779972184380930e-03 0.0000000000000000e+00  -7.6572400560603687e-02 1.3324220979442603e-01 0.0000000000000000e+00  5.3653506100389391e-03 9.4198893224162056e-02 0.0000000000000000e+00  1.5440685037841925e-01 1.6379704992845343e-01 0.0000000000000000e+00  6.1436551797323408e-02 -6.1657899355575592e-02 0.0000000000000000e+00  6.2092476480181194e-02 6.1680455659744615e-02 0.0000000000000000e+00  2.6026051174049960e-02 2.6166797534733006e-02 0.0000000000000000e+00  2.3407396162490275e-02 -2.3029506241397914e-02 0.0000000000000000e+00  -2.3202887936638425e-02 2.3539712134927403e-02 0.0000000000000000e+00  -2.2516290532039140e-02 -2.2877854589223322e-02 0.0000000000000000e+00  -2.2922656166449364e-02 2.2615401219730061e-02 0.0000000000000000e+00  -1.0105605991059027e-01 7.1532365273851706e-02 0.0000000000000000e+00  -3.2947427221306905e-02 2.3884653702148123e-02 0.0000000000000000e+00  -1.1632311121929291e-02 -1.1630902869110291e-02 0.0000000000000000e+00  0.0000000000000000e+00 0.0000000000000000e+00 0.0000000000000000e+00  0.0000000000000000e+00 0.0000000000000000e+00 0.0000000000000000e+00  1.2547404517529937e-02 -1.2537092617284433e-02 0.0000000000000000e+00  1.2543635538718739e-02 1.2543044159442247e-02 0.0000000000000000e+00  3.2719354478225646e-02 -2.3475186470185840e-02 0.0000000000000000e+00  0.0000000000000000e+00 0.0000000000000000e+00 0.0000000000000000e+00  1.4222782492006686e-01 4.1085621663454773e-02 0.0000000000000000e+00  1.2100361737549342e-01 8.4261788040907074e-02 0.0000000000000000e+00  0.0000000000000000e+00 0.0000000000000000e+00 0.0000000000000000e+00  6.9772279011129770e-02 1.0440776632603585e-01 0.0000000000000000e+00  0.0000000000000000e+00 0.0000000000000000e+00 0.0000000000000000e+00  -7.1510852670791075e-02 -1.4153297654688221e-01 0.0000000000000000e+00  3.0515654624593297e-02 -4.9201827693641190e-02 0.0000000000000000e+00  -1.5896999298092640e-01 1.3062953318443632e-01 0.0000000000000000e+00  -2.5284741101913810e-01 1.8327572398794095e-01 0.0000000000000000e+00  2.2257106329761051e-02 2.2784091470583166e-02 0.0000000000000000e+00  -4.0267635876218406e-02 1.1850367010663427e-02 0.0000000000000000e+00  2.5653971036354681e-02 4.0159782462043901e-02 0.0000000000000000e+00  3.6191813993606471e-02 1.5047869730867247e-01 0.0000000000000000e+00  -2.4161880073666073e-02 -3.1920127241532655e-02 0.0000000000000000e+00  -1.5021547452531250e-01 -1.3730939049741739e-01 0.0000000000000000e+00  8.3317926528564165e-02 -6.9106654895978947e-02 0.0000000000000000e+00  1.9760615964921846e-01 -2.3543694247506364e-01 0.0000000000000000e+00  1.3317257580227210e-01 -1.5861933076216786e-01 0.0000000000000000e+00  1.3206586975950524e-01 -8.7721401171947044e-02 0.0000000000000000e+00  0.0000000000000000e+00 0.0000000000000000e+00 0.0000000000000000e+00  2.4928236814075069e-01 2.0914796819056328e-01 0.0000000000000000e+00  4.2496735049385058e-03 -5.4638022913562595e-02 0.0000000000000000e+00  -3.4984579251292912e-02 -2.9738346003817678e-02 0.0000000000000000e+00  -3.2789235426560016e-02 3.8540428424977340e-02 0.0000000000000000e+00  0.0000000000000000e+00 0.0000000000000000e+00 0.0000000000000000e+00  -1.3623212295018078e-01 4.1283642778127190e-02 0.0000000000000000e+00  1.1605251759481955e-01 -3.8441768926486077e-02 0.0000000000000000e+00  -1.9485289403644365e-01 1.3299611979719277e-02 0.0000000000000000e+00  2.8852688514524723e-02 -1.5892863980805899e-01 0.0000000000000000e+00  -6.2683047710948750e-02 -6.5960939913986188e-02 0.0000000000000000e+00  -1.0381912296625470e-01 -4.3426908267323372e-02 0.0000000000000000e+00  -7.1851941459600874e-02 9.2058344539568196e-02 0.0000000000000000e+00  0.0000000000000000e+00 0.0000000000000000e+00 0.0000000000000000e+00  9.8852883925587220e-02 3.1522176560711490e-01 0.0000000000000000e+00  -7.7585207824337005e-02 -1.0372158828457673e-01 0.0000000000000000e+00  2.4699246094326211e-02 -2.5111986272523926e-02 0.0000000000000000e+00  -1.4377625787339679e-02 1.4380950160810941e-02 0.0000000000000000e+00  1.5123924932028210e-02 4.0083511705653330e-02 0.0000000000000000e+00  3.9610844836103297e-02 2.8399349180504737e-02 0.0000000000000000e+00  -2.3956135820372686e-02 -2.3360360442945982e-02 0.0000000000000000e+00  1.0878646064233478e-01 -3.1681897258320285e-01 0.0000000000000000e+00  -2.1164548119074988e-02 -4.1723832100309409e-02 0.0000000000000000e+00  -2.3223246916128457e-01 -2.3555395208432842e-01 0.0000000000000000e+00  -1.2870217077030482e-01 -3.0403032861871093e-01 0.0000000000000000e+00  3.0913361671751799e-01 -1.1355819988795079e-01 0.0000000000000000e+00  -8.9387225605124812e-02 -6.9849402621899884e-02 0.0000000000000000e+00  -6.7574706012691721e-02 6.5226894019404971e-02 0.0000000000000000e+00  1.5679479599786848e-02 -3.9913161903332162e-02 0.0000000000000000e+00  -4.2151815026623567e-02 9.9569219631282027e-02 0.0000000000000000e+00  2.1844176382817135e-01 -5.6742229477333150e-02 0.0000000000000000e+00  -3.7694151288431926e-02 -1.0140762222495744e-01 0.0000000000000000e+00  -2.1426650616497303e-02 3.9926041200106586e-02 0.0000000000000000e+00  0.0000000000000000e+00 0.0000000000000000e+00 0.0000000000000000e+00  -3.9809525959155129e-02 -2.1385975167314834e-02 0.0000000000000000e+00  -1.3710827723039470e-01 3.0667522134377329e-01 0.0000000000000000e+00  -6.6394660849139059e-02 -2.1225411460356775e-01 0.0000000000000000e+00  4.2251637234622462e-02 1.8512499940929100e-02 0.0000000000000000e+00  8.1631463784916730e-02 6.8995118128881566e-02 0.0000000000000000e+00  4.0697165126297452e-02 -1.9288350848409144e-02 0.0000000000000000e+00  -7.6661610968056029e-02 1.9058226377836032e-01 0.0000000000000000e+00  -1.1824007233588039e-01 1.4055972939964703e-01 0.0000000000000000e+00  2.7125414369537399e-03 -1.0891212014012944e-01 0.0000000000000000e+00  4.4828927572601899e-03 4.2066259146630931e-02 0.0000000000000000e+00  -4.3623450658521919e-02 1.3143270896843644e-03 0.0000000000000000e+00  -1.4540245426652013e-01 7.8811669538832341e-02 0.0000000000000000e+00  0.0000000000000000e+00 0.0000000000000000e+00 0.0000000000000000e+00  1.9531468056148995e-02 1.8595385873939718e-02 0.0000000000000000e+00  1.0108899875227292e-01 1.5192665239116868e-01 0.0000000000000000e+00  5.4969674792508839e-02 -1.3107966750666525e-01 0.0000000000000000e+00  4.6073338799954150e-02 4.8751819133823079e-02 0.0000000000000000e+00  0.0000000000000000e+00 0.0000000000000000e+00 0.0000000000000000e+00  0.0000000000000000e+00 0.0000000000000000e+00 0.0000000000000000e+00  0.0000000000000000e+00 0.0000000000000000e+00 0.0000000000000000e+00  0.0000000000000000e+00 0.0000000000000000e+00 0.0000000000000000e+00  0.0000000000000000e+00 0.0000000000000000e+00 0.0000000000000000e+00  0.0000000000000000e+00 0.0000000000000000e+00 0.0000000000000000e+00  0.0000000000000000e+00 0.0000000000000000e+00 0.0000000000000000e+00  0.0000000000000000e+00 0.0000000000000000e+00 0.0000000000000000e+00  0.0000000000000000e+00 0.0000000000000000e+00 0.0000000000000000e+00  0.0000000000000000e+00 0.0000000000000000e+00 0.0000000000000000e+00  0.0000000000000000e+00 0.0000000000000000e+00 0.0000000000000000e+00  0.0000000000000000e+00 0.0000000000000000e+00 0.0000000000000000e+00  0.0000000000000000e+00 0.0000000000000000e+00 0.0000000000000000e+00  0.0000000000000000e+00 0.0000000000000000e+00 0.0000000000000000e+00  0.0000000000000000e+00 0.0000000000000000e+00 0.0000000000000000e+00  0.0000000000000000e+00 0.0000000000000000e+00 0.0000000000000000e+00  0.0000000000000000e+00 0.0000000000000000e+00 0.0000000000000000e+00  0.0000000000000000e+00 0.0000000000000000e+00 0.0000000000000000e+00  0.0000000000000000e+00 0.0000000000000000e+00 0.0000000000000000e+00  0.0000000000000000e+00 0.0000000000000000e+00 0.0000000000000000e+00  0.0000000000000000e+00 0.0000000000000000e+00 0.0000000000000000e+00  0.0000000000000000e+00 0.0000000000000000e+00 0.0000000000000000e+00  3.2567263457567180e-01 1.1989730047194519e-01 0.0000000000000000e+00  -6.6636407204190243e-02 4.5791416197584478e-02 0.0000000000000000e+00  -4.3173869422000431e-02 4.1923328536277081e-02 0.0000000000000000e+00  2.4603160089692679e-02 2.7880384933952583e-02 0.0000000000000000e+00  6.8566561700681428e-02 7.8209640250179596e-02 0.0000000000000000e+00  1.1313505356672943e-01 1.0352528646049521e-02 0.0000000000000000e+00  2.2370111823752700e-02 -2.7060122682741529e-02 0.0000000000000000e+00  1.9908922381163172e-01 2.6474830657207488e-02 0.0000000000000000e+00  4.2109507449380461e-02 -4.3531230904449977e-02 0.0000000000000000e+00  6.9322860210348419e-02 -7.9575258705496935e-02 0.0000000000000000e+00  -1.7332733780847244e-02 -1.8267323861744927e-02 0.0000000000000000e+00  -1.1075667832511316e-01 -1.4355662107601755e-01 0.0000000000000000e+00  -2.7102748684326713e-02 2.4491450297350191e-02 0.0000000000000000e+00  1.6295207065143852e-01 2.4004440518806597e-01 0.0000000000000000e+00  4.2681329550090068e-03 1.9579674817775508e-01 0.0000000000000000e+00  1.8291647346066069e-02 -1.7289136143736689e-02 0.0000000000000000e+00  -2.9213596837354494e-01 9.3165204017063685e-02 0.0000000000000000e+00  -5.6972237535283847e-02 -7.0082098084001315e-02 0.0000000000000000e+00  -3.2935695375241425e-01 -1.1760161625694458e-01 0.0000000000000000e+00  -2.1916010636192212e-01 -5.5918617801397466e-02 0.0000000000000000e+00  9.0352947930091465e-02 -1.4640763477388721e-01 0.0000000000000000e+00  5.8872251593595319e-02 1.2731440999035759e-01 0.0000000000000000e+00  6.9205888080184283e-02 4.9806245274232802e-02 0.0000000000000000e+00  4.1520832796119754e-02 4.0327304461170221e-02 0.0000000000000000e+00  2.4739469839965885e-02 2.3048506087473167e-02 0.0000000000000000e+00  -3.4175598583651712e-02 1.7890524059731051e-02 0.0000000000000000e+00  -1.9686768246216686e-02 2.0597886704800963e-02 0.0000000000000000e+00  4.6217662031793824e-02 7.1639521406610007e-02 0.0000000000000000e+00  -2.0652563325563391e-02 1.9835040492219132e-02 0.0000000000000000e+00  1.5113831193424829e-01 -1.2666516081771104e-01 0.0000000000000000e+00  1.6090807608550767e-02 1.7089450157427851e-02 0.0000000000000000e+00  1.5957807052490378e-01 -6.8163845568084483e-02 0.0000000000000000e+00  4.0752180477048656e-02 -1.1972385559486578e-03 0.0000000000000000e+00  1.0651582544943296e-01 -1.3479326708687985e-02 0.0000000000000000e+00  -3.4994787081646583e-03 -3.1922761873829052e-02 0.0000000000000000e+00  1.5636214094538953e-01 1.1947290652089082e-01 0.0000000000000000e+00  6.4886586983784161e-02 -4.9070692391843196e-02 0.0000000000000000e+00  2.5254291080989862e-02 -2.2470434258083823e-02 0.0000000000000000e+00  4.2785048614237563e-02 -4.1484416883850989e-02 0.0000000000000000e+00  -4.4254202436362399e-03 3.3505148770977218e-02 0.0000000000000000e+00  1.550855722150350