<?xml version="1.0"?>
<VTKFile type="UnstructuredGrid"  version="0.1"  >
<UnstructuredGrid>
<Piece  NumberOfPoints="1109" NumberOfCells="1972">
<Points>
<DataArray  type="Float64"  NumberOfComponents="3"  format="ascii">2.214466202533946e-18 1 0  1.846106944574836e-18 2.562943687982902e-18 0  1 2.223235494863027e-18 0  1 1 0  0.8189808661211793 0.5367220183007981 0  0.8228265512066943 0.4999901505421499 0  0.819007042636716 0.4632125148623986 0  0.8086094805357192 0.4282818813390572 0  0.7928120342046605 0.3959148217669101 0  0.7725964545559729 0.3650838889851822 0  0.7476420704193387 0.3329844196870154 0  0.7174352175693206 0.2992587651639427 0  0.6837895112100776 0.2668544400962567 0  0.6505986037281785 0.2392009052683193 0  0.6194687953935054 0.2167032671775015 0  0.588169686364243 0.198693870222534 0  0.5544874309895931 0.185363411155261 0  0.5184123022351532 0.1782869616557763 0  0.4816462535276036 0.1782330456039891 0  0.4455546031873739 0.185376928517067 0  0.411837874824051 0.1986705506525421 0  0.3804368346970713 0.2167903411441896 0  0.3494253999950151 0.2391431899645141 0  0.3162562692636612 0.2668185829548217 0  0.2825612207133276 0.2992010469853982 0  0.2522970745621943 0.3330400245549359 0  0.2274361713092704 0.3651846907746741 0  0.2072924720409424 0.3959325517055867 0  0.1914054246643425 0.4282519384040649 0  0.1810058976776578 0.4633039360583812 0  0.1772269887693264 0.4999023769959892 0  0.1808602617149814 0.5367014843020653 0  0.1913418515037528 0.5716987754962043 0  0.2071274168459626 0.6040783916643218 0  0.2273342087114697 0.6349360021642588 0  0.2523602352792281 0.6670784409719694 0  0.2823221521950037 0.7009099025160703 0  0.3159789662842094 0.733172502317804 0  0.3494785635290528 0.760830976268574 0  0.3804653419863063 0.783313533878492 0  0.4118025502700944 0.8013098044552932 0  0.445515769660268 0.8145337343448089 0  0.4816281959230289 0.8217200155543466 0  0.5183897865524613 0.821785460929318 0  0.5544759454839855 0.8146325318326714 0  0.5882408578685717 0.8013035875448673 0  0.6196023391905546 0.7832756495629214 0  0.6505966016304314 0.7610084082587395 0  0.68393286155721 0.7333461622451014 0  0.717386038760237 0.7009585816906507 0  0.7478424099226004 0.6670835582097829 0  0.7727226473498043 0.634912939941859 0  0.7929155789298951 0.6040470347171291 0  0.808611424319625 0.5717346711163288 0  0.5 1.077977563170033e-17 0  0.5 1 0  9.322536671851802e-18 0.5 0  1 0.5 0  0.25 5.876002579011324e-18 0  0.75 4.583223007283459e-18 0  0.75 1 0  0.25 1 0  6.568129424049751e-18 0.75 0  6.288863758631162e-18 0.25 0  1 0.25 0  1 0.75 0  0.375 2.701395722016834e-18 0  0.625 1.064036463060082e-17 0  0.625 1 0  0.375 1 0  7.411020049796892e-18 0.625 0  4.565612721456879e-18 0.375 0  1 0.375 0  1 0.625 0  0.125 2.138125356527369e-18 0  0.875 5.89048084551794e-18 0  1.163771404320827e-18 0.875 0  0.125 1 0  0.875 1 0  2.712033580616321e-18 0.125 0  1 0.125 0  1 0.875 0  0.1802054675561607 0.156118509156772 0  0.819779219814217 0.8437613478097046 0  0.819843800276955 0.1560751898396862 0  0.1610654287967565 0.8388644472570199 0  0.9002716608560142 0.2161375912193923 0  0.1268292306470216 0.2444924889606543 0  0.8731358965054267 0.7556879369442653 0  0.127127937519336 0.7236849794637816 0  0.2549636395656734 0.8724835907819281 0  0.08521880706405395 0.08524026500592012 0  0.0625 1 0  2.368737049488175e-18 0.9375 0  1 0.0625 0  0.9375 3.224474791323108e-18 0  0.9147113964786161 0.914792240964708 0  0.6969206383822651 0.1182946999297829 0  0.3031656886236009 0.1183567960781438 0  0.7333811349863215 0.8745697432406145 0  1 0.6875 0  1 0.3125 0  0.1028551376423112 0.3241031308654556 0  8.739362895538659e-18 0.6875 0  0.1875 2.935467196587933e-18 0  0.8125 2.536328799034652e-18 0  0.8847909865528287 0.3009492092524248 0  0.3125 1 0  0.6875 1 0  0.9057310934150208 0.09426172931710387 0  0.8897403570900094 0.6846164053228854 0  4.769769663201264e-18 0.8125 0  0.0897670350948104 0.910215719288038 0  0.08306764367948984 0.8208578270094133 0  0.8056339521462057 0.2424878890344119 0  0.3210608325107682 0.8905811273309122 0  0.6456983997333601 0.8928959720375831 0  0.8998715474024777 0.8343935827562529 0  0.1002199822554604 0.1653868665314501 0  0.8125 1 0  0.0968631430800509 0.634911024754799 0  0.8993170082396185 0.3570559849648131 0  0.2367281526219398 0.7838220120335465 0  0.6406851198271405 0.09568324630364469 0  0.3125 5.334881679123777e-18 0  0.3649528926877783 0.09623258489152087 0  0.2630883666982313 0.1745626287922096 0  0.7739463261482146 0.09789287808004471 0  0.1774193935602563 0.9170040288528623 0  0.5625 1 0  0.4375 7.055646469315144e-18 0  0.4375 1 0  0.5625 1.42567712588192e-17 0  0.2105518639753205 0.09063220107862655 0  0.8976075468834782 0.621185495151223 0  0.741769103424587 0.186325433748613 0  0.8047498829751891 0.9165410717758724 0  1 0.4375 0  4.287045099193976e-18 0.4375 0  1 0.5625 0  7.343618003299998e-18 0.5625 0  2.943594814541899e-19 0.3125 0  1 0.8125 0  0.0625 1.796337277449772e-18 0  2.59008678487923e-18 0.0625 0  3.652396320756454e-18 0.1875 0  1 0.1875 0  1 0.9375 0  0.9375 1 0  0.6875 2.463078165822036e-18 0  0.1875 1 0  0.7583755657561423 0.7788047448712037 0  0.2060549648861563 0.2380152730640019 0  0.8426117163722258 0.07809079405787543 0  0.1975545420512113 0.7358687208723818 0  0.3740680431897147 0.9028690113873045 0  0.9061446469647434 0.4269289718229443 0  0.09392036085673719 0.5731715545235343 0  0.08835964399564389 0.4184809496278854 0  0.581973488510276 0.08587643947128135 0  0.5953189862162441 0.9015899495924495 0  0.4150563115915403 0.08871235068587412 0  0.07824929014544635 0.6927639651747995 0  0.9150355706889178 0.5272243687245044 0  0.08497476474930948 0.4727082579727275 0  0.1646572384298194 0.3079254375997076 0  0.1489341010928593 0.0859010211030091 0  0.9142538450022184 0.5763234589505658 0  0.6734259477279007 0.8420116897347587 0  0.7064662160113381 0.9238962452300206 0  0.08115711923716916 0.3674218443281645 0  0.9259411050280478 0.1514161225219207 0  0.4222322718085225 0.9129179752795028 0  0.5347273299801025 0.0854002005543201 0  0.4724128343578096 0.07995010820448664 0  0.4694877358739883 0.9177722362475267 0  0.5275333846383283 0.920042708593833 0  0.82590994335747 0.6956108101554642 0  0.7990618802234807 0.7403403516446029 0  0.05832864101277017 0.7632073966965293 0  0.7069694724221626 0.8030028418229663 0  0.285038775430225 0.8024305528207687 0  0.05786430225518851 0.2365994434927531 0  0.9282955846993483 0.7395130814731244 0  0.9124100239525387 0.4756850292626807 0  0.08762730521297579 0.5243595383446487 0  0.8554270972145346 0.9039123696607022 0  0.8206969695100482 0.2935311866012809 0  0.1504629128567575 0.6529745686009589 0  0.763946865861131 0.9442668595518325 0  0.1342398411650715 0.7724830267531306 0  0.2096732746589382 0.8561867272511884 0  0.2363032500355289 0.9432177052590142 0  0.8431905162063768 0.7941906365825484 0  0.8656029370845525 0.1812440585471067 0  0.9350551273123189 0.249561991626099 0  0.93296711557079 0.79802115811825 0  0.2515884822445849 0.06660159914727913 0  0.3186696050600371 0.8297923306864807 0  0.7648069005928345 0.8395435076263291 0  0.7037780294583545 0.05237828799310354 0  0.2962308429299049 0.05234759847114008 0  0.7453816786747344 0.06286466449968292 0  0.8911119319479421 0.04594372885574106 0  0.04492226273787592 0.1696097555291143 0  0.1552819100929581 0.1970826978456229 0  0.9372465866304968 0.3112143612319534 0  0.1791402491510781 0.6800057554415109 0  0.9588397719341945 0.1037615259354086 0  0.2607766690931625 0.2415525950251704 0  0.05791004479847959 0.8732887363936523 0  0.103736407135264 0.958645608751268 0  0.1689072672001498 0.04261206218461958 0  0.8387518468018371 0.3542341830991749 0  0.7386178371340922 0.2422929771236526 0  0.10747175494499 0.04337939952344678 0  0.04025019311518659 0.1034464256748234 0  0.889161801317821 0.9539033974739448 0  0.9598372594189567 0.8965948623549088 0  0.1258862822067222 0.1274415497592721 0  0.9550898420998496 0.9550981003537535 0  2.044252149832088e-18 0.03125 0  0.03125 2.371068864552485e-18 0  0.9485891471564719 0.05139982436453204 0  0.04815857620782611 0.9518921660544946 0  0.8543026269695397 0.6399022192345394 0  0.1795987001504714 0.7868732986297888 0  0.1832401835163172 0.2732475442971454 0  0.1014562227008032 0.2819925856825629 0  0.28125 1 0  0.2797956445888184 0.9396256290907594 0  0.1095274021353577 0.8537237827266623 0  0.6508549509104156 0.1492313448785176 0  0.694895572818039 0.180493944426237 0  0.3501668394575138 0.146366164306065 0  0.3104577207162458 0.1799339472242088 0  0.8745202633200468 0.3985452157496793 0  0.7819981657590739 0.2006225082206951 0  6.148119124438838e-18 0.28125 0  0.1650247541721877 0.3453203268685732 0  0.6333496915986552 0.9421303344241267 0  0.2209925762454794 0.1970799416109908 0  0.8767334281566362 0.2628411464639679 0  0.951857625238358 0.7091887295789892 0  0.9287177794956951 0.66392003908562 0  0.3761228236486689 0.8421722356640622 0  0.2552442013833759 0.1202858218625556 0  0.04768073964618134 0.04765145305449198 0  0.5577598266298258 0.887845865112413 0  0.1344763808610987 0.9138480411426728 0  0.1455548162972574 0.3941330329670832 0  0.9508232984660903 0.1829202312525925 0  0.8683273120282712 0.1336253964353957 0  0.7307581994374934 0.1311986101973991 0  0.9499937558447976 0.8535341212408671 0  0.84375 3.874664832314313e-18 0  0.8121647077358164 0.05174749395167509 0  0.4989540661880376 0.8787975334142943 0  0.5000250216503586 0.1235741569056824 0  0.8835728272035742 0.8729870474748415 0  0.768935121074811 0.286672203682282 0  0.08228672267496311 0.2088492991730871 0  0.84375 1 0  0.8463326223321055 0.9512542015772136 0  0.1280905962666892 0.5970150967279364 0  0.06376643421120662 0.6127783454379592 0  0.4089818398935441 0.8633336701302671 0  0.59375 1 0  0.05545752357988273 0.2887341958687184 0  1 0.34375 0  0.9378907905398073 0.3760818029464645 0  0.2331590265693765 0.2828553170079209 0  0.3140407507186028 0.9459510
[...]
<CellData  Scalars="dens"> 
<DataArray  type="Float64"  Name="dens"  format="ascii">7.1415055660947102e-01   6.7461843477929084e-01   7.0531732275992676e-01   7.1030076494703431e-01   6.2874924984438230e-01   7.1424007509235743e-01   7.2415894115629087e-01   7.6416083468474949e-01   7.1665511162283313e-01   6.6381269863009251e-01   7.1300913008138045e-01   7.5990425250687332e-01   6.8159880071042467e-01   7.3185369343215534e-01   7.3433527594779835e-01   7.1512431161932399e-01   7.2852759940646361e-01   6.7825516351118142e-01   6.3459215794458712e-01   7.6205917687254310e-01   7.2747403225252227e-01   7.3064931306383185e-01   7.1545244022129495e-01   6.8530983456581973e-01   7.3429218896178516e-01   6.9578648597204495e-01   6.9430984250219929e-01   7.5731599881740597e-01   6.9288705678697804e-01   7.3689459940931568e-01   7.1920947628479981e-01   6.8269235933253081e-01   6.5063357405432742e-01   6.9913517217006493e-01   7.2459177538012065e-01   7.5849171093634360e-01   6.9661715216302411e-01   7.0572495247343192e-01   7.2601948094517965e-01   7.3670890946805823e-01   7.8039911006039431e-01   6.9272154664934216e-01   7.9287827670583888e-01   6.9432855264181681e-01   7.1886439470766572e-01   7.0223213540586815e-01   7.0348111437345451e-01   6.9699274161830871e-01   7.3213135546304742e-01   7.1871042264623497e-01   7.2820481787480318e-01   7.0290807783042208e-01   7.0220254644205848e-01   7.3531320270048461e-01   7.2273366627389901e-01   7.2074848257113477e-01   7.2962317198130355e-01   6.8852101632515084e-01   7.1512906423086942e-01   7.2057329394843661e-01   7.1248725305615090e-01   7.2769828952331550e-01   7.7921422397434936e-01   7.9936411239703875e-01   7.7525052176831133e-01   6.9191132350368745e-01   7.5864582254608925e-01   8.2402488215840430e-01   7.1502841022223051e-01   7.8307099936573343e-01   7.1737750998639693e-01   7.2288133562527612e-01   7.6552425077883635e-01   7.0946690065530604e-01   7.3588526754874717e-01   7.1616211484994696e-01   7.4563641459589369e-01   7.1726881581941004e-01   7.0936812773273672e-01   7.1876866062359790e-01   6.8353470368591052e-01   7.2441441720601107e-01   6.9124410705796324e-01   7.2385466377113150e-01   7.3626071835379625e-01   7.0632042787813365e-01   7.1785843415257578e-01   7.1940427542439600e-01   7.3288302766841906e-01   7.0918746260869636e-01   8.1435349788999312e-01   7.0989257331573541e-01   7.3042611656310275e-01   7.1109065610389244e-01   7.0802793083483717e-01   7.0786487542783727e-01   7.6537539115505904e-01   7.3170241964002125e-01   7.4417817766576966e-01   6.9391164443355391e-01   7.4400806619630344e-01   7.2351157119737708e-01   7.0843275157918184e-01   7.1811150158523140e-01   7.5260091398078710e-01   7.3091932333133691e-01   7.5705516645673454e-01   6.9748579127264165e-01   6.9073489274894595e-01   7.2485703306533100e-01   7.1662499936384794e-01   8.1249054662174236e-01   7.4227843855345899e-01   6.8068397190298147e-01   6.9150155313720008e-01   7.0118489661522576e-01   7.5207366982750501e-01   7.2312607347681646e-01   6.5777280267778737e-01   6.3295795914573805e-01   6.9083357950608981e-01   6.5230127079214884e-01   6.5839874746586058e-01   6.9270042057385162e-01   7.1670089106636725e-01   6.8425572536262491e-01   7.1088522728036019e-01   7.1485784474757530e-01   6.8940473553914405e-01   6.3130755361073987e-01   6.8135797696796030e-01   7.9267502111410670e-01   6.4833851633397854e-01   6.6680806784950841e-01   7.4241750836611642e-01   7.2504651195819347e-01   7.7177344758399624e-01   7.4156234384219089e-01   7.2465364906309471e-01   7.3014976074453064e-01   7.2736615964737439e-01   7.2712827997081164e-01   5.9993714839415668e-01   7.1686371306769570e-01   6.8679500218919254e-01   6.8511335267894091e-01   6.9650815944307964e-01   7.5624407138610161e-01   6.9164926239025770e-01   7.0974169207534876e-01   7.2452914483478448e-01   6.2834810169015376e-01   6.6029052277000766e-01   6.2379564999788883e-01   6.7511797831771980e-01   6.5947693960747034e-01   6.7924938770043353e-01   7.3780043890699987e-01   6.8563889324257754e-01   6.5500355893466256e-01   6.3887731262296399e-01   5.8547238093700871e-01   6.9049839591300022e-01   6.2305783898729428e-01   6.0826067229300584e-01   7.2191067002054576e-01   7.4199073606100874e-01   7.0214876131182080e-01   6.1455381690963129e-01   6.4129952141622537e-01   7.3888556830969343e-01   6.9208467843726840e-01   6.8933577122876410e-01   7.0694441310580847e-01   7.0012894136827075e-01   7.6834345549745620e-01   7.1363714211610885e-01   6.5993127200526314e-01   6.6836469961331613e-01   6.7375977301801071e-01   6.9206101750097726e-01   6.5262559419197619e-01   6.9159176463108685e-01   7.0733291928473085e-01   6.8097812107382905e-01   6.9947214594226115e-01   7.1234704905998469e-01   7.2341010785906246e-01   7.2582901136225220e-01   7.1144481262200920e-01   7.3049598793575410e-01   7.0375379850751396e-01   7.1428546061713150e-01   6.0414223407842371e-01   6.7484392757747225e-01   6.3269439876562239e-01   7.1232320470214305e-01   6.9698405080637149e-01   7.2278431332157234e-01   7.9359794697674479e-01   6.9762014758254043e-01   7.1888558406496816e-01   7.3657533595680036e-01   7.0245930465207795e-01   7.1191915216466339e-01   7.1893804501002601e-01   7.1900538382939005e-01   7.0984888643649480e-01   7.0839384241945902e-01   7.1417963827157238e-01   6.9285103706034445e-01   6.8784128667682964e-01   7.3598775485180901e-01   7.2247569558405200e-01   7.1851428263031669e-01   7.1948376592271990e-01   7.4631562863589862e-01   8.1077522343474695e-01   7.0778181597093393e-01   6.9891639003936679e-01   7.2321307469537410e-01   7.2322357903588064e-01   7.1496040983305920e-01   7.1708240915098631e-01   7.1844077731433986e-01   7.1226388505996407e-01   7.6596867844301531e-01   7.4111080302779442e-01   7.0474617781865001e-01   7.0593086762466173e-01   6.9126817279548558e-01   8.2836970362212525e-01   7.3594640182493576e-01   7.1789947432104728e-01   7.5690918565379195e-01   6.9397667387983775e-01   6.9421490743582581e-01   7.8067535292088996e-01   7.8110619927920066e-01   7.1947459941726299e-01   7.6285707306993966e-01   7.5645805819201029e-01   7.4174331989157660e-01   6.8087883236012292e-01   7.1067012076164682e-01   7.4292744389213372e-01   7.3083755357071112e-01   7.3260453071505338e-01   7.6626484479736634e-01   8.4465234882062090e-01   7.2885430004510066e-01   7.2355587089763562e-01   7.4053561155807102e-01   7.5871245070790272e-01   8.0915279733160428e-01   8.4090411511354024e-01   7.8666544919826709e-01   7.8264939206981243e-01   8.1891906251253632e-01   7.5425282225449042e-01   6.9342338474026888e-01   6.8575746405095173e-01   6.8118664463215917e-01   7.1187177882172570e-01   7.1962673888119977e-01   7.0700895691245857e-01   7.4588006573946408e-01   6.5833352024594316e-01   7.1537627431501849e-01   6.9757989557781541e-01   7.0062953506247705e-01   7.2916534905356012e-01   7.7791527758898849e-01   7.2516391757982857e-01   7.4371134000684502e-01   6.9185445177654648e-01   7.6969436183407047e-01   8.2020252788700754e-01   7.1730404063405795e-01   6.9002832780599088e-01   6.8839892927464508e-01   6.3288163577622758e-01   6.7012587640559629e-01   7.8464703466070040e-01   7.3283403845264095e-01   7.0083336275016472e-01   6.8833963999193293e-01   7.0625665886631828e-01   7.0795253921914991e-01   6.9713197234405822e-01   6.5469526808816236e-01   7.8314558142925472e-01   7.0832323808515596e-01   7.1985895132421640e-01   7.9406200797470172e-01   8.1458087611300323e-01   7.3554940761071685e-01   7.0390852777139279e-01   7.1267802662946711e-01   7.8125438969900085e-01   7.2524774670731629e-01   7.1858535113688837e-01   7.0483664756987574e-01   7.3005773541264884e-01   7.2352038991709111e-01   7.2331236317389280e-01   7.7698529402220962e-01   7.3389203870920738e-01   7.2171403105534127e-01   7.4338362030272431e-01   7.2885243299813895e-01   7.3037429109419538e-01   6.8459474415845767e-01   6.7907253391965772e-01   6.8272491077167763e-01   7.1839815987864419e-01   7.4736052290229138e-01   7.6998758794177380e-01   7.0210790714504634e-01   7.3041842429785031e-01   7.5139173361515432e-01   7.8640327638670959e-01   7.2086247170053941e-01   7.3869990139789665e-01   7.4716135052960386e-01   6.6423984985988183e-01   7.2780448884631466e-01   7.6760944353735050e-01   6.3415437247415229e-01   6.3351021346883907e-01   7.0582789261308165e-01   7.3577253935439346e-01   7.4069032228108944e-01   6.3748493795110583e-01   6.6316682050519460e-01   6.6411886194210890e-01   6.8808770877232661e-01   7.0539677568545334e-01   6.5014953363675954e-01   6.7619955589903813e-01   7.1626403163636754e-01   7.1576989485420039e-01   6.9024220227038968e-01   6.8285684449949879e-01   8.1619538924071910e-01   7.6604354283335663e-01   6.9296507045852718e-01   8.0542109177133869e-01   6.5087050623151288e-01   6.9527797709884609e-01   7.3514103206237780e-01   7.1488252858622969e-01   6.6202380450440068e-01   6.6023573676726754e-01   6.3209514566484448e-01   7.4070302087785711e-01   7.2398561346063839e-01   6.8702684615479725e-01   7.0629831593292858e-01   6.7579967439445143e-01   7.6019019082816908e-01   7.1108340567523198e-01   7.0450843002126562e-01   7.3014430687454712e-01   7.2789762288738746e-01   7.7140059462901611e-01   7.3122642798472037e-01   7.5616284243334175e-01   7.4807488187070825e-01   6.9670766028780695e-01   7.1096965097569775e-01   7.5002575932997284e-01   7.0875580911443881e-01   6.7337363743230405e-01   6.7752417032469625e-01   7.1968141361975557e-01   7.1317458815595858e-01   7.4861516304311893e-01   7.7050963000285599e-01   8.3228686656989415e-01   7.5070648657886641e-01   7.4820543313648658e-01   7.8746555136151586e-01   6.9731500434946603e-01   6.9700298319951548e-01   8.0641252300106225e-01   7.5854949630612112e-01   6.0676272010214771e-01   5.7544256680795924e-01   7.3805281275022794e-01   7.9163671207516151e-01   7.7685935096715542e-01   6.5510953562090524e-01   6.3657557544139209e-01   6.1555165261838551e-01   7.4862707146935792e-01   6.9826799562062036e-01   7.1860157086724152e-01   6.9854825696207745e-01   7.1598235510261954e-01   6.8732219684581297e-01   7.0582853521260980e-01   7.1482634446976545e-01   7.1322743060157656e-01   6.9832980564510549e-01   7.1666267641778436e-01   7.2610835080225178e-01   7.2160167749733728e-01   6.4845841173550367e-01   6.2261540124089365e-01   5.7295275760067277e-01   5.7489029015037874e-01   6.8824445139211643e-01   6.8822162177409507e-01   8.3331841028540021e-01   7.7562123231121760e-01   6.7107399205318408e-01   6.1634127716687825e-01   6.9280252259843467e-01   6.7796854249236926e-01   6.9135947507485662e-01   6.8004785803957457e-01   7.1773622593258146e-01   7.7661223604400897e-01   5.9639407112686293e-01   7.0562332669807892e-01   6.7771397686524104e-01   7.0134144535174270e-01   7.0289459103350072e-01   7.0368806555675811e-01   6.8349777180072191e-01   6.8741660550592976e-01   6.8159779880460281e-01   7.0746691564489672e-01   6.4740294575367541e-01   6.6731078559489043e-01   6.0132213128316081e-01   7.8328134100728553e-01   6.8674887843985688e-01   6.9959351519709456e-01   7.1006341132613160e-01   7.2529789991974269e-01   7.3308281130971220e-01   7.2844061480213396e-01   7.6479301362127861e-01   5.7556766738981058e-01   7.4975532927480149e-01   7.0497566260455014e-01   6.7937349420874105e-01   7.6090179653582812e-01   7.3197880486960420e-01   7.4213808227794842e-01   7.4656650918588696e-01   7.0072492931124875e-01   6.8707955704325618e-01   6.9328026324648317e-01   6.8910862321964117e-01   6.8642473911710422e-01   6.9702340339340951e-01   6.8799723104022947e-01   7.3876977074309413e-01   7.3529637466494036e-01   7.0612813816218500e-01   7.0938802075514507e-01   6.9687695574082720e-01   6.7853743175062931e-01   7.2459609264336100e-01   7.0157852181599700e-01   7.3649948526826226e-01   7.4465419049385251e-01   7.2583101228539448e-01   6.7798107158952858e-01   6.5012480613586465e-01   6.7656352717237289e-01   7.1927344500886359e-01   7.0548111160200377e-01   7.1980764331333358e-01   7.1969632510102255e-01   6.1368174573734924e-01   6.2182951215398596e-01   5.8609858832788131e-01   8.1829455276086283e-01   7.5157695597719898e-01   8.3586279398890873e-01   6.7726836475700058e-01   6.5022395077803408e-01   7.0736809534757372e-01   7.0696336743209132e-01   7.4539650556978199e-01   7.3466827928965894e-01   7.1417286167454730e-01   7.1202648399988500e-01   6.8824245760334457e-01   6.8967114612880009e-01   7.1068492758003765e-01   6.5435357393365878e-01   7.5137411293439682e-01   7.2344741434480431e-01   7.0603928170721064e-01   7.1434537430371292e-01   7.0956902547937672e-01   7.1033162701725727e-01   7.2463680674738573e-01   7.4557954601269305e-01   7.3511492096162678e-01   7.3921470631050201e-01   7.0840177152977601e-01   5.9916445497169779e-01   6.5811925403530736e-01   6.7094507991139662e-01   6.2609425805051599e-01   7.4495507686860174e-01   8.0991548579272910e-01   7.7342630505409815e-01   7.5964353668816387e-01   7.2440380330212395e-01   6.9923506765805266e-01   7.1304102499342514e-01   7.1041591960893602e-01   6.8585808068412735e-01   6.8451682375145917e-01   7.0519992574150803e-01   7.0666089781178332e-01   6.9554143480413277e-01   6.2351962148345486e-01   5.7275895547723765e-01   7.0915765333769043e-01   7.1567882944914996e-01   6.9268787445719049e-01   7.1311941270536949e-01   6.5141431200747912e-01   6.5582291687071204e-01   6.9044685361487346e-01   6.8748851995846105e-01   7.4516905868538785e-01   7.6532703840796679e-01   7.1597542435442252e-01   7.4817760352491547e-01   7.6483160060787792e-01   7.1823784851061301e-01   7.1948300612410909e-01   7.3343491594378829e-01   6.5373262858536296e-01   6.3681506210193495e-01   7.8102596876334685e-01   7.7659060047869510e-01   7.7207143262699118e-01   8.1575090839936781e-01   8.1197030612797771e-01   8.4161167447056418e-01   7.7256289507741960e-01   7.8609868085589263e-01   7.5282609426002811e-01   8.0441956216253685e-01   7.3521747412209693e-01   7.6551662187056180e-01   7.7409261462158474e-01   7.6434028761524775e-01   7.5553974988264261e-01   7.7816966764184148e-01   7.7418263573608304e-01   7.8894822024953981e-01   6.5851306319668812e-01   6.3483887819691731e-01   6.9405610198996204e-01   7.0600913911112084e-01   7.2222526236340912e-01   6.8656224482537598e-01   7.4475044749961317e-01   7.2717393680872722e-01   6.4725074362023072e-01   6.2158626137243012e-01   7.7933510192036304e-01   7.8709622148112335e-01   7.4839723740275166e-01   7.2817046783274220e-01   7.2085134500163128e-01   7.0048482403822276e-01   7.1394156079253002e-01   7.3528893574855625e-01   6.0365765793397408e-01   6.2662643887746872e-01   6.2359656200891878e-01   6.3379831826303712e-01   5.8519298557293220e-01   5.7577003923436754e-01   6.0436616980332858e-01   6.4606213864585582e-01   6.4734968062323173e-01   6.2310396147467051e-01   6.5406272211990624e-01   6.2218153369838325e-01   5.8928461982878422e-01   6.1956852632882131e-01   6.4391226276391977e-01   6.1941907584517886e-01   7.5644747108752108e-01   7.9645893456760508e-01   7.8111902278351375e-01   8.0138618985548327e-01   8.2147550229449917e-01   7.9252029356312825e-01   8.8732652207763807e-01   8.8687370471210381e-01   8.4535544727311895e-01   8.1725657435922805e-01   6.9418953241380799e-01   6.3902837660504264e-01   7.4285313311714152e-01   7.6429290858200138e-01   7.1923970435200035e-01   7.2857166597049439e-01   6.6997580609561025e-01   7.3989184018698928e-01   7.5241307710199767e-01   7.2768866544686350e-01   7.8896251659279470e-01   7.1594024089609543e-01   7.0969895222128743e-01   7.2106995086398606e-01   7.1106687167550353e-01   7.2707570520305553e-01   7.2497469048668584e-01   7.6303044835765732e-01   7.2947450788816837e-01   5.8835193899076943e-01   6.2226920982117095e-01   6.6239808025113445e-01   6.3229510808452050e-01   6.1470411465570662e-01   6.4812644340543568e-01   7.3144110640067783e-01   7.2554712058835169e-01   7.3494576791436605e-01   7.2320909180109383e-01   7.1442961717580722e-01   7.1211269712169056e-01   6.9578991066482820e-01   7.7854341390940784e-01   6.9352108429117576e-01   6.4377769539467233e-01   6.2628897783845394e-01   7.6212426815416834e-01   6.5818996240184857e-01   6.9912407117855768e-01   5.7321783877331411e-01   6.1026194393071231e-01   7.0871203182022713e-01   5.7296238159069224e-01   6.0955101648495424e-01   7.2802843782688953e-01   7.3725168771138772e-01   7.7032463715612709e-01   8.0501900473275145e-01   7.6876736174919769e-01   7.2153097680151679e-01   7.1100216348649936e-01   7.3718572974110796e-01   7.3455780291416328e-01   6.2784501649054181e-01   7.9097043738430450e-01   7.5778383309144670e-01   7.4641470904474783e-01   7.1755311697771684e-01   6.5468984020958687e-01   6.8377562685266235e-01   7.6127495580406934e-01   7.0804518207948142e-01   7.3128115716322772e-01   6.5576918496280379e-01   7.1724802190858228e-01   7.8838390605886477e-01   7.3597105298396592e-01   7.1960732472259070e-01   7.3012326850979936e-01   7.1979019665563015e-01   7.8580832428157454e-01   7.8505605693217728e-01   8.3433844008826896e-01   6.8723980962474007e-01   6.7530761986988164e-01   8.2868102100873786e-01   7.8432920307365683e-01   6.9460134489909542e-01   7.0212232887391923e-01   6.8982709265491127e-01   7.3964318640285898e-01   7.4472492360550013e-01   7.1456889422517533e-01   7.4965155156012730e-01   8.1148631173773933e-01   6.4992393192144216e-01   6.5374802128809273e-01   7.2669683684077768e-01   7.0293244782404363e-01   7.6715319584219843e-01   7.2237785333996818e-01   7.1625207635929367e-01   6.9630287173909311e-01   6.8681706109096119e-01   7.6142191717647012e-01   7.2801827040521372e-01   7.7457903763218461e-01   7.5118872896369493e-01   7.6506738465082791e-01   7.5825326985543917e-01   6.5991294191472327e-01   7.0238660907658990e-01   5.9562978354384577e-01   6.2058534946586863e-01   7.1628401576209311e-01   7.2509873890578191e-01   7.9882346109753466e-01   7.1733951586774503e-01   7.3897866389631317e-01   5.8996519867260011e-01   6.3876678643817431e-01   7.3339080976839954e-01   7.8286532239865847e-01   7.6144829747663234e-01   8.1221635338349307e-01   6.7198003889759872e-01   6.4898229789573358e-01   6.7563903648229640e-01   6.8918712049339537e-01   7.7183137527465462e-01   7.2523388303861114e-01   6.9958492820731366e-01   7.0933930983841287e-01   7.0493519612771482e-01   7.0362202907740778e-01   7.3958413575813475e-01   7.2363605436695999e-01   7.5826105067978411e-01   7.3869269191754006e-01   7.0331185091273751e-01   7.0199177408717095e-01   7.2317749148532362e-01   7.3303737580257133e-01   7.1013891489055003e-01   7.1541016831245685e-01   7.6057084412198450e-01   7.1443294037026861e-01   7.1955370682287767e-01   8.3457932141186719e-01   7.8799659818763901e-01   7.9205284677095689e-01   7.6955964979750668e-01   6.8735239609134358e-01   6.7054791529427726e-01   7.3979742920299640e-01   7.3249333720008813e-01   7.1442335591183792e-01   7.0577562952176531e-01   7.2328083014212408e-01   7.0848574484860039e-01   6.9198467603082481e-01   7.2713259757611015e-01   7.3485916459126932e-01   7.2185372598587061e-01   6.5673321155038766e-01   6.2539641044747885e-01   7.0515281164843502e-01   7.2339642618768607e-01   7.2941302210627845e-01   7.1758043768262025e-01   6.8087473414144095e-01   6.9447065916421413e-01   8.2334685310117095e-01   6.0942894972445005e-01   6.0828169268268428e-01   6.7733331872188873e-01   7.6494229358045629e-01   7.0941953070184394e-01   7.2101658056164819e-01   7.1475911101485523e-01   7.5729899820359503e-01   7.3827495589106273e-01   7.9124803888292750e-01   7.0227519511772385e-01   7.1594830335607407e-01   6.8347992469936758e-01   6.8840264215811620e-01   8.0260362855439826e-01   7.6703231418647111e-01   6.8168270410043885e-01   7.5282760076111788e-01   7.3268458717759755e-01   6.9479980487951887e-01   6.8353014214693031e-01   7.0469992765824663e-01   7.1925319111283581e-01   7.3107431099103204e-01   7.1311213030499621e-01   7.0769859791211998e-01   6.7899842509985031e-01   8.40063638604667