<?xml version="1.0"?>
<VTKFile type="UnstructuredGrid"  version="0.1"  >
<UnstructuredGrid>
<Piece  NumberOfPoints="1109" NumberOfCells="1972">
<Points>
<DataArray  type="Float64"  NumberOfComponents="3"  format="ascii">1.550126341773762e-18 1 0  2.332610739020335e-18 3.049447482428401e-18 0  1 2.445559044349329e-18 0  1 1 0  0.8032408781622251 0.5345668445911823 0  0.8075190225193259 0.5000125184628844 0  0.8032651827590332 0.4653332421828468 0  0.79168194370777 0.4329819915731472 0  0.7742387051263633 0.4040293613570606 0  0.7525466728006664 0.3777944849361788 0  0.7269332508864714 0.3505645407823768 0  0.6967491502994761 0.319514972637462 0  0.6645250192021527 0.2876375839655535 0  0.6353238312975803 0.2596772758256297 0  0.6091898642446788 0.236077534398612 0  0.5818819414941154 0.2164235369777541 0  0.5511646079469662 0.2016138820940218 0  0.5173736216757421 0.1937095961749675 0  0.4827105492498686 0.1936558512697271 0  0.4489066071153289 0.2016284806187257 0  0.4181244980479166 0.2163946215822354 0  0.390698600572848 0.2361751140818858 0  0.3647233932936157 0.2596062053666143 0  0.3355040718848408 0.2876013173860585 0  0.3032420089648456 0.3194322890118672 0  0.2729931703157988 0.350565005315484 0  0.2474953833344847 0.3779118376680827 0  0.2258796444596299 0.4040343218758884 0  0.2083351012416606 0.432940411178533 0  0.1967483481768277 0.4654445536333792 0  0.1925382481264993 0.4999014233161361 0  0.1965935098711276 0.5345687025757612 0  0.2082678880305159 0.5669773914760032 0  0.2256941981394971 0.5959537225221367 0  0.247364751144772 0.6222028909161561 0  0.2730723825342474 0.6495287534751308 0  0.3029051620836853 0.680755899845728 0  0.3351461196679679 0.7123983879856728 0  0.3647658822971756 0.740356314263147 0  0.3907300428954187 0.7639437804553828 0  0.4181091248474725 0.7835805695465804 0  0.4488434965594553 0.7982797797230323 0  0.4826846835128277 0.806297377441452 0  0.517354102896487 0.8063661154009623 0  0.5511467792587146 0.798383937450593 0  0.5819472595253565 0.7835784134029479 0  0.6093037477941852 0.7638989028280865 0  0.6353833189385103 0.7405734723034976 0  0.664757270399491 0.7126168416620364 0  0.69670306431507 0.6807820665639843 0  0.72718881155427 0.6495829494924292 0  0.7527086520085546 0.6221895572151271 0  0.7743547975313759 0.5959069582659805 0  0.7916775464324514 0.567030628401015 0  0.5 1.077977563170033e-17 0  0.5 1 0  5.082839606362897e-18 0.5 0  1 0.5 0  0.25 7.18178092990273e-18 0  0.75 3.075409791839692e-18 0  0.75 1 0  0.25 1 0  5.296340195041823e-18 0.75 0  3.474744115488066e-18 0.25 0  1 0.25 0  1 0.75 0  0.375 9.00465240672278e-18 0  0.625 9.602280276395866e-18 0  0.625 1 0  0.375 1 0  8.893224059756271e-18 0.625 0  3.320445615605002e-18 0.375 0  1 0.375 0  1 0.625 0  0.125 6.608751101993685e-18 0  0.875 5.89048084551794e-18 0  1.95528696901328e-18 0.875 0  0.125 1 0  0.875 1 0  3.70070134077411e-18 0.125 0  1 0.125 0  1 0.875 0  0.1900296157390624 0.1656732197451178 0  0.8099318525032471 0.8341633372758802 0  0.8100253087141953 0.1656175083059162 0  0.1702895986652329 0.829618549095543 0  0.893287916374868 0.2234591516842883 0  0.1361693752617168 0.2536818260551212 0  0.8637771186044138 0.7465338717767598 0  0.1371856877902676 0.7149570144323441 0  0.2641101292221008 0.8628875055408991 0  0.08913924628195438 0.08917978496106185 0  0.0625 1 0  4.443980919202597e-18 0.9375 0  1 0.0625 0  0.9375 3.742595208675673e-18 0  0.9107676982335882 0.9108691702520214 0  0.6896278536780407 0.1281962444141584 0  0.3104658997306389 0.1282743449936706 0  0.7245656562084941 0.8648589873689309 0  1 0.6875 0  1 0.3125 0  0.1118149901711873 0.3295083380884833 0  8.739362895538659e-18 0.6875 0  0.1875 5.032229479865028e-18 0  0.8125 5.49537906457508e-18 0  0.8751703780384428 0.3080574649778783 0  0.3125000000000001 1 0  0.6875 1 0  0.9012555317478429 0.09873283481992048 0  0.8802960919336514 0.6783616344734886 0  6.490829718255284e-18 0.8125 0  0.09399592937999249 0.9059824635156005 0  0.08839421916682363 0.8148284880132816 0  0.7920515025109883 0.2559868953978252 0  0.327030666472933 0.8811220646208496 0  0.6411082008795344 0.8833634957261881 0  0.8937206740413087 0.8275356608475647 0  0.1064048905709095 0.1722025104008767 0  0.8125 1 0  0.1055181997291448 0.6312218493058365 0  0.8903471653366509 0.3612348763161079 0  0.25123104505771 0.7692578718258201 0  0.6368586315858046 0.1042242079510989 0  0.3125 9.479324393548402e-18 0  0.3686304143080855 0.1048303363377707 0  0.27558426708633 0.1875569897181277 0  0.7667980312223002 0.1049104743908776 0  0.1834235473245104 0.9117021349684624 0  0.5625 1 0  0.4375 6.350081822383629e-18 0  0.4375 1 0  0.5625 1.166463102994298e-17 0  0.2172114561882447 0.09693437166884833 0  0.8884507600065186 0.6176956609381384 0  0.7285021952819819 0.1999040630410341 0  0.798589128218721 0.9109351217740798 0  1 0.4375 0  4.019104780494352e-18 0.4375 0  1 0.5625 0  7.554908774595385e-18 0.5625 0  1.460329555208152e-17 0.3125 0  1 0.8125 0  0.0625 5.087948747111768e-18 0  3.85219065328089e-18 0.0625 0  6.333410641311724e-18 0.1875 0  1 0.1875 0  1 0.9375 0  0.9375 1 0  0.6875 1.375836259824201e-17 0  0.1875 1 0  0.7433928778084649 0.7637816810523809 0  0.220163566299005 0.2520929046709169 0  0.8370931904032569 0.08282953702899609 0  0.2120448076718335 0.7217608070067206 0  0.3774851771991747 0.8941789332538177 0  0.8978429654647959 0.4287197852863284 0  0.102222483143183 0.5713862855665559 0  0.0961946019816097 0.4203593483872061 0  0.5801562337405349 0.09349368731775695 0  0.592788403184569 0.8928277833607585 0  0.4170084942330488 0.09658490953049549 0  0.08496207285985778 0.6884268996891897 0  0.9076169794553338 0.5266453715797315 0  0.09239751165380142 0.4732768302339154 0  0.1782072266918464 0.318710642038571 0  0.154719382636312 0.09097494338355043 0  0.9066632497329712 0.5746737268266542 0  0.6639956864911331 0.8284886454557348 0  0.7019701076600635 0.9174758273947449 0  0.08841946534331632 0.3703120467178301 0  0.9215230767295606 0.1566244640523691 0  0.4239607294431518 0.9052091658726046 0  0.5339710297313116 0.09286750162768143 0  0.4729303633051519 0.08693615724005754 0  0.4700904779501368 0.9105894724283821 0  0.5269895080532214 0.9130593440357835 0  0.8117490984244776 0.6838601648536491 0  0.7845050195961681 0.726081548623787 0  0.06275000506370623 0.759065507331766 0  0.6929960155477981 0.7875708146475634 0  0.2991303613053355 0.787249338003603 0  0.06226367373510257 0.24070018787744 0  0.9226280479824159 0.7346755895631685 0  0.9047653024087757 0.4762056082923944 0  0.09527108311892998 0.5238537809594146 0  0.8492026660782644 0.8983227977545415 0  0.8064672006579675 0.3060298887294966 0  0.1637031481629227 0.64527844392304 0  0.7600004005159743 0.9400358639885332 0  0.1436811508212183 0.762793861565596 0  0.2197202167310024 0.8465600520790112 0  0.2403210557093733 0.9389033940047894 0  0.8328766050285817 0.783537106745859 0  0.8572042771520273 0.1901606939690242 0  0.9300225852345906 0.254058828817135 0  0.9283279185273844 0.7930385698947175 0  0.2561749127734338 0.07178840415905484 0  0.3294979410036927 0.8155123019842173 0  0.7534171441604974 0.8282477118367897 0  0.7008660864161029 0.05685353097409272 0  0.2991355519788169 0.05681984074071951 0  0.7411091150437515 0.06780764581388987 0  0.8880583020196081 0.04837483157999595 0  0.04780625482154229 0.1730124316741963 0  0.1652781005431517 0.2074779049189338 0  0.9317920547366334 0.3144690713972411 0  0.1941314342677215 0.6685068719024332 0  0.9567012992490201 0.1064902659128399 0  0.2773904435810378 0.2583368360974557 0  0.06113491076568366 0.8693355980468214 0  0.106453571743239 0.9564982690201137 0  0.1721160545255682 0.04533805409420791 0  0.824509040877747 0.362298480149062 0  0.7219485208121422 0.2591627044926 0  0.1103523915867058 0.04566520252411331 0  0.04234448343209652 0.1060915566031096 0  0.8860981499586483 0.9514396338021595 0  0.9577581957700854 0.8939837012758125 0  0.1325474696745626 0.1341529763352947 0  0.9533960105194763 0.9534061304387933 0  9.29205522650949e-19 0.03125 0  0.03125 2.759061951479255e-18 0  0.9465943174103363 0.05338707523314847 0  0.05000079832386646 0.9500765175206102 0  0.8413331780867387 0.6332358728663846 0  0.1913900296310976 0.7748997244097454 0  0.197111139917986 0.2863110844864863 0  0.1096964067366051 0.2886218122772621 0  0.28125 1 0  0.2834936920522392 0.9346180719688235 0  0.1158399207987657 0.8469532097119754 0  0.6433677748789399 0.1624022173325164 0  0.6826268221471794 0.1951666521249242 0  0.3574085010852971 0.159292555912089 0  0.3224959481579662 0.1946953180851864 0  0.8633192516719734 0.4022653614562064 0  0.7689326695607324 0.2136527099048686 0  1.654626941308654e-18 0.28125 0  0.1794798919978142 0.354251235743908 0  0.6313993731473533 0.9369501422790086 0  0.2340212277848917 0.2100402475083252 0  0.8672528934668629 0.2715680691528965 0  0.9477660075918246 0.7064612911001197 0  0.9224112732146866 0.660709805225503 0  0.3825735038587842 0.8280496988981429 0  0.2638404952077893 0.1293929745206607 0  0.04949609523524155 0.04946437534236131 0  0.5560202683203996 0.8779873744276423 0  0.1399663225359868 0.9089778292555482 0  0.1585590602607898 0.3989256800775364 0  0.9475608540182475 0.1866161449268795 0  0.8612480680951025 0.140728231672112 0  0.7215240952544494 0.1413869647185582 0  0.9470113244343363 0.8498818848409198 0  0.84375 5.432270694275594e-18 0  0.8082921185395276 0.05522791342513496 0  0.4990050222854246 0.8682664129194242 0  0.5000440829578885 0.1343077528544881 0  0.8773469798532555 0.8665952579978925 0  0.7515887625498777 0.3031217313270165 0  0.08800980946080735 0.2149439521131572 0  0.84375 1 0  0.8427347328322523 0.9482771148627516 0  0.1395152511123778 0.5933565122805534 0  0.06946675158904189 0.6109589879653728 0  0.4127394261372755 0.8511633285945549 0  0.59375 1 0  0.06013070159905516 0.2919600140234462 0  1 0.34375 0  0.9323307628002416 0.3780282666317253 0  0.250488804390321 0.2994892172877774 0  0.3167539120975076 0.94124
[...]
<CellData  Scalars="dens"> 
<DataArray  type="Float64"  Name="dens"  format="ascii">6.6506144428397473e-01   6.3572554328154696e-01   6.6157286016551753e-01   6.7974825634345393e-01   5.8717581890803650e-01   6.8024609311065820e-01   6.7989281951511493e-01   7.4879273914560085e-01   6.8484310909308022e-01   6.1566662717501186e-01   6.8403851426426066e-01   7.3835596052803243e-01   6.4698792904568314e-01   6.8951606078301542e-01   7.0678118896987818e-01   6.7989164439736316e-01   7.0245013709296067e-01   6.2283293564555042e-01   5.9425467955317202e-01   7.4597665888161313e-01   6.9580930779796157e-01   6.8925914544367817e-01   6.7658319898388875e-01   6.3568119133063516e-01   7.0626673658661743e-01   6.6419916526792622e-01   6.6369719380118553e-01   7.3953812914855543e-01   6.4275284290024870e-01   6.9208046251649624e-01   6.8437888003735659e-01   6.4265227098218025e-01   6.0688661535942612e-01   6.6634612622758993e-01   6.9531946236615649e-01   7.0769834013520883e-01   6.4475297335706139e-01   6.5970586475970927e-01   6.7465620582682118e-01   6.9206557393183010e-01   7.3297423280114660e-01   6.3844089929832615e-01   7.5113973008054169e-01   6.4443210993754130e-01   6.7886752397623540e-01   6.5810839564579660e-01   6.5968433364103041e-01   6.5448799780638900e-01   6.8866823485954198e-01   6.7687095859735924e-01   6.9841838316266258e-01   6.6780227790717850e-01   6.5869447139573833e-01   6.9237095977458407e-01   6.8322762456546127e-01   6.8922156205759666e-01   6.9783080683123155e-01   6.3835449723839000e-01   6.7590662363839871e-01   6.6784279468069441e-01   6.7467703246212563e-01   6.7295886130303406e-01   7.3371642056389041e-01   7.5988987388593554e-01   7.2601509521056906e-01   6.4448786206366526e-01   7.4330814199953177e-01   8.2605740859958132e-01   6.7790265702855224e-01   7.9066321112214322e-01   6.8293653240684693e-01   6.9129518073460261e-01   7.4503313540637106e-01   6.7402137757823488e-01   7.1640045173668088e-01   6.8420951975344912e-01   7.3023883966725422e-01   6.8610046077632691e-01   6.7440785579170748e-01   6.6931399141739423e-01   6.3081447845839156e-01   6.9139538312562998e-01   6.5247849321446705e-01   6.9277905180621902e-01   7.0994060963888317e-01   6.4981273094832870e-01   6.6451782702439566e-01   6.8725672209814515e-01   6.8851992291981257e-01   6.6673573437302991e-01   7.7249594844164393e-01   6.5356844333386765e-01   6.8458735125666836e-01   6.7258788963107941e-01   6.5559838084162414e-01   6.7855578056482557e-01   7.6979620394162451e-01   7.0542371371577939e-01   7.1835419314492310e-01   6.4315201537670974e-01   6.9989423553275865e-01   6.8622252186209509e-01   6.5807178765429974e-01   6.6753163273586236e-01   7.0703798490939673e-01   7.0357194454315353e-01   7.3518386491660392e-01   6.4777822011114250e-01   6.4352588181314241e-01   6.9495809605726244e-01   6.8374039030753986e-01   8.0687130869388635e-01   7.2342602143370804e-01   6.2908346407275817e-01   6.3717515320547602e-01   6.5554966633083711e-01   7.0648152082615545e-01   6.6789604833996663e-01   6.1530800177342948e-01   5.9135483540863276e-01   6.5478451292362394e-01   6.1240298584696407e-01   6.1981482064515125e-01   6.4596467388832057e-01   6.7653892308101871e-01   6.4629359029546862e-01   6.7156203491084188e-01   6.7299401607094389e-01   6.3438078157599342e-01   5.8921878379269832e-01   6.4772155032274137e-01   7.8055320662910033e-01   6.0665038417433059e-01   6.2298469145997581e-01   6.9772380700165004e-01   6.9445871354359434e-01   7.2312879955432730e-01   6.9567155532537184e-01   6.8356457599077503e-01   6.8411786272963226e-01   6.7232464312323015e-01   6.9928404620775320e-01   5.5075602548453895e-01   6.7710833570814943e-01   6.3694841042703654e-01   6.3196673995005470e-01   6.4686445100209911e-01   7.1117938155669658e-01   6.3364971425673422e-01   6.7729500595228254e-01   7.0188760517804372e-01   5.8235909593383783e-01   6.1562719589949610e-01   5.8172298924267729e-01   6.3663392349291048e-01   6.2274506323365686e-01   6.4252871145051271e-01   7.0983771676241969e-01   6.4780757319339333e-01   6.1463768231032045e-01   5.9551912416684172e-01   5.3788060001509341e-01   6.5333317216585818e-01   5.7690320929433481e-01   5.6348422870085835e-01   6.9113918261850060e-01   7.2614826008646916e-01   6.4554612695030011e-01   5.6778061430982663e-01   5.9760408962519984e-01   7.1751578624915524e-01   6.5038107307332305e-01   6.4324803462060953e-01   6.6759890827168988e-01   6.6128208091576002e-01   7.2450203513732481e-01   6.6074237787929679e-01   6.2099898251206664e-01   6.3286489000345192e-01   6.3749303637594401e-01   6.6010266565895859e-01   6.1212886535655009e-01   6.5111140142327062e-01   6.6549246880122681e-01   6.2554900149728820e-01   6.5041962739647630e-01   6.6819273369265642e-01   6.8130126752178222e-01   7.0524031359301442e-01   6.7899869033808602e-01   7.0780989877471556e-01   6.5748562016748335e-01   6.7705506247726899e-01   5.6022412780892761e-01   6.3957708418857673e-01   5.9156810935605053e-01   6.8532015058035389e-01   6.3999063737430217e-01   6.6869410005818020e-01   7.9036706646920507e-01   6.5145211217218635e-01   6.8673736695791598e-01   6.9342088979062422e-01   6.6376050020538013e-01   6.7723886022691815e-01   6.8567854453695087e-01   6.7823874787767557e-01   6.6670204203905903e-01   6.5519936549686031e-01   6.6489397017271645e-01   6.4547837118830198e-01   6.3074834524952506e-01   6.9127862135366180e-01   6.7866317531669873e-01   6.7536961425357633e-01   6.7461398250232119e-01   7.2399508400268076e-01   8.1258312963307222e-01   6.7315755776721398e-01   6.5006827421069691e-01   6.9261301298323341e-01   6.9276473477427647e-01   6.7448123065463184e-01   6.7840688378412606e-01   6.8005866188171393e-01   6.6236595578161173e-01   7.2169280713564465e-01   6.9727176873746965e-01   6.5597821408010393e-01   6.4971768699004206e-01   6.4874212684230925e-01   8.4670014037313834e-01   7.1432253928780742e-01   6.6234624001245646e-01   7.0645194903840491e-01   6.4540871212216244e-01   6.5097940997206183e-01   7.3255747538867733e-01   7.3716985913590649e-01   6.6850528668849452e-01   7.2060256681158474e-01   7.4993309276303532e-01   7.2146123997712275e-01   6.2817719106870606e-01   6.7113525568825527e-01   6.9295131710868563e-01   6.7659115633497058e-01   6.8240130093498752e-01   7.2229571617537547e-01   8.1181451718349829e-01   6.7580591012603908e-01   6.6918358927996591e-01   6.8839338845008335e-01   7.1143946249647849e-01   7.7167999395256759e-01   8.0740165954313659e-01   7.3951153829058702e-01   7.3565650754662326e-01   7.7859795565586232e-01   7.4094923503845167e-01   6.4441228229903147e-01   6.2990024921339838e-01   6.3009369901110535e-01   6.7020788944723919e-01   6.9397475911673812e-01   6.7274919330007232e-01   7.2261830852084585e-01   6.0557842044993393e-01   6.7707206984698409e-01   6.4648647830806050e-01   6.4374564565776549e-01   7.1059846745896482e-01   7.7591200640862135e-01   6.9873505228708976e-01   7.2900402693298783e-01   6.4731149390817100e-01   7.6843295733931327e-01   8.2115677625560957e-01   6.8590274916944716e-01   6.3609102403758988e-01   6.3345689910859371e-01   5.8108240469596717e-01   6.2091934807618832e-01   7.7796181455726754e-01   7.0350152588409220e-01   6.4986710323114605e-01   6.4200999035132988e-01   6.7020632259279800e-01   6.6780358421629349e-01   6.5705796376141068e-01   6.0686913519202834e-01   7.8123299513396116e-01   6.6801315976756070e-01   6.7751502565602995e-01   7.4874474882744657e-01   7.7264856683441185e-01   7.0802039450026877e-01   6.4989693866965714e-01   6.5850361532568558e-01   7.7004236519451674e-01   6.8136184484475681e-01   6.7594557681152079e-01   6.4977400185943168e-01   6.7485101564152239e-01   6.9232668131786057e-01   6.8709795020450104e-01   7.3433056778534345e-01   6.8330451227416211e-01   6.7826279385018928e-01   7.0043982414155170e-01   6.7945297022506412e-01   6.8652426256597521e-01   6.5076798381159162e-01   6.4651251480521410e-01   6.5103585942202702e-01   6.6431216561768403e-01   6.9685205512891157e-01   7.7046366090826235e-01   6.5597980705968018e-01   6.8884545598216518e-01   7.0777856020104168e-01   7.4543015924809475e-01   6.7506218350819391e-01   6.9535628536308158e-01   7.2285911835086403e-01   6.1837429753130413e-01   6.9877543379650497e-01   7.4855292302020970e-01   5.8924193935675218e-01   5.8902579843005165e-01   6.6287632993945289e-01   7.0577876448287402e-01   7.1340758207906274e-01   5.8547358547201422e-01   6.1743708100131656e-01   6.1900014927453373e-01   6.3898936231688008e-01   6.5877428213658429e-01   6.0141953308079310e-01   6.3093179321463910e-01   6.8085075241967297e-01   6.8396820730077745e-01   6.5739780810267257e-01   6.4307661221922496e-01   8.1105812233184571e-01   7.4841324749082927e-01   6.4944799246979235e-01   8.2129504169917411e-01   6.0194570217619214e-01   6.4993828584798774e-01   7.2175270606596642e-01   6.8225698825489300e-01   6.1857083128738899e-01   6.2153262440121770e-01   5.8722440103291962e-01   7.1973109730573337e-01   6.9434207644709334e-01   6.4383440004116788e-01   6.7015558674085773e-01   6.3006537224568993e-01   7.4456692437524008e-01   6.6972292416497703e-01   6.5634717378484586e-01   7.0445669144177858e-01   7.0166158250913935e-01   7.5525047075159413e-01   7.0320881210725228e-01   7.3847524083516058e-01   7.3557288097416140e-01   6.4119859473584184e-01   6.7110683097706669e-01   7.0632402781506676e-01   6.5856424435091587e-01   6.1673674597879480e-01   6.2389651968874871e-01   6.8973499413866457e-01   6.7860777668908867e-01   6.9734492009677773e-01   7.7045380605085168e-01   8.4028315819255039e-01   7.0412071476105464e-01   7.0470260818922581e-01   7.4649871179133820e-01   6.4225359244978342e-01   6.4397262669492916e-01   8.2098718914898938e-01   7.5528593214439321e-01   5.6200290163762701e-01   5.2901494139375782e-01   7.1446070054763622e-01   7.8823165292985164e-01   7.6169157595308157e-01   6.1038079301760439e-01   5.8802402857122038e-01   5.6951777987596985e-01   7.0542296251374770e-01   6.4545156334867715e-01   6.7290305960347974e-01   6.5092345711930266e-01   6.7583124872295119e-01   6.3662132906152613e-01   6.5650017826935492e-01   6.5960159403457574e-01   6.6082817296962215e-01   6.5520551788646686e-01   6.8021115048747327e-01   7.0170756568681225e-01   6.8639236737676368e-01   6.0816730731042978e-01   5.7986402024185679e-01   5.2683043816856923e-01   5.2852781340279809e-01   6.4455329409087692e-01   6.4416041808053304e-01   8.5076934578773966e-01   7.7247395382548256e-01   6.2680894339576276e-01   5.6564529586127399e-01   6.4426694157762365e-01   6.2472590082298995e-01   6.5413528166737733e-01   6.3755419271190106e-01   6.8857237351583500e-01   7.5941232178470375e-01   5.4759147358789084e-01   6.4911736875302184e-01   6.2091020564765775e-01   6.6798188783013890e-01   6.7231919468335799e-01   6.6700079774032073e-01   6.3075279888311409e-01   6.4359436355654220e-01   6.3878277214785750e-01   6.7130219963627846e-01   5.9923351916693579e-01   6.2325348572326922e-01   5.5200518414672040e-01   7.7106579305513490e-01   6.3241841506575591e-01   6.5542834147257800e-01   6.7593112809396139e-01   6.9271236976947803e-01   6.9064701064073608e-01   6.8286056683997765e-01   7.4630605864069699e-01   5.2911599880048754e-01   7.2498529766350428e-01   6.6647489131164184e-01   6.3331450713721960e-01   7.4704837246594924e-01   7.0605981940386187e-01   6.9815178838684444e-01   6.9953246266299784e-01   6.5505540404246809e-01   6.3771125125856787e-01   6.4737287695090162e-01   6.3487468071715225e-01   6.3082617567365329e-01   6.4629779062075987e-01   6.3381209468670419e-01   6.9382580510232872e-01   6.9233310091212341e-01   6.5265724911631284e-01   6.5631605008684446e-01   6.4831933679824483e-01   6.2830280172722741e-01   6.8704151215757969e-01   6.6206979130485355e-01   7.0880971395551184e-01   7.2352941975584628e-01   6.9622652020459874e-01   6.3022462171267912e-01   6.0182428487028128e-01   6.3334392656720184e-01   6.8421940545322757e-01   6.5860577293761513e-01   6.7287843782882506e-01   6.7804205125567241e-01   5.6323830202431180e-01   5.7564799755831531e-01   5.3839850024860303e-01   8.1106367169344251e-01   7.3131352462400845e-01   8.4247279396367969e-01   6.3286293857089027e-01   6.0189394537856578e-01   6.6308221638967091e-01   6.6374041109331439e-01   7.0098776461815704e-01   6.8976360870656861e-01   6.5777025617671725e-01   6.6345794410917369e-01   6.4751278179160054e-01   6.4974867615264131e-01   6.8235690862331966e-01   6.1498457515972427e-01   7.4546835880497231e-01   6.8874661169446205e-01   6.5447111286676263e-01   6.7745855135067845e-01   6.7568611725034766e-01   6.8148306388579760e-01   6.9574707129612667e-01   7.3020458931797583e-01   7.1079596577809356e-01   7.1170621380821464e-01   6.7189176712712440e-01   5.5005249833496528e-01   6.1269130679101702e-01   6.2768915516404622e-01   5.8265334377043243e-01   7.3549633088449651e-01   8.2719247752125469e-01   7.3008265437564634e-01   7.1724298775905415e-01   6.7920623915709122e-01   6.4912143029846658e-01   6.7055512878781909e-01   6.7145969252269211e-01   6.3495487214500079e-01   6.3184454759332054e-01   6.5887033612198020e-01   6.6827539364037891e-01   6.4990076137931263e-01   5.8090118836114824e-01   5.2666460618534050e-01   6.6710113051476594e-01   6.8069036006219386e-01   6.4970374227089955e-01   6.7324932539399052e-01   6.0446826284964705e-01   6.0824548054679306e-01   6.3569506870639148e-01   6.3117480380648894e-01   7.3239435934892994e-01   7.5243388053264060e-01   6.7057967126167262e-01   7.0334091570141932e-01   7.2073805348990549e-01   6.7302803219883778e-01   6.7536965325998011e-01   6.8938530596091208e-01   6.0100413877339698e-01   5.8476093994938028e-01   7.4143668386787454e-01   7.3294411623412081e-01   7.2368355605334656e-01   7.7545869656044397e-01   7.6951118299631749e-01   8.0832775322981376e-01   7.2751521994752910e-01   7.4520871051661830e-01   7.0769791040516095e-01   7.6561464611000984e-01   6.9003127000049214e-01   7.2255114007551613e-01   7.2805234229657845e-01   7.2005560216985232e-01   7.1045417853802917e-01   7.3235832674373724e-01   7.2810482327341186e-01   7.4845466917409731e-01   6.0561336837551261e-01   5.8288973773527286e-01   6.4994514442558826e-01   6.5939718232164390e-01   6.8006579631767561e-01   6.3853893115025018e-01   6.9736014895528919e-01   6.7761355461081618e-01   6.0848350624688541e-01   5.7962159289782855e-01   7.3841452656629114e-01   7.4626716915630331e-01   7.0161464886738389e-01   6.8623953009649730e-01   6.7941013717608778e-01   6.5564063359422342e-01   6.7285830067164265e-01   6.8989467879695576e-01   5.5992527332751518e-01   5.8294937276125036e-01   5.8139462682717802e-01   5.9254580797735057e-01   5.3761552075396413e-01   5.2930667574225232e-01   5.6040753362142137e-01   6.0715520865322226e-01   6.0867044220861288e-01   5.8161441456298135e-01   6.1457962707154934e-01   5.7965410004908335e-01   5.4126000264476481e-01   5.7530283160851525e-01   6.0083276361319071e-01   5.7364303950834616e-01   7.0588263335339330e-01   7.5167317149640822e-01   7.3907701608360110e-01   7.6205658424214828e-01   7.8208043388780368e-01   7.4710241987439341e-01   8.6055979953668393e-01   8.5994610178314235e-01   8.1287406511370563e-01   7.7701861748072187e-01   6.4200942500118974e-01   5.8685074025848594e-01   6.9927507592211768e-01   7.2172899214537301e-01   6.7453196818031691e-01   6.7920026162592095e-01   6.1709661415249395e-01   6.9035608561213080e-01   7.0592010590547671e-01   6.9894866993482330e-01   7.7684272998477988e-01   6.7782455102643491e-01   6.6903228405900250e-01   6.6612114793783728e-01   6.5926727240834304e-01   6.7759530132098200e-01   6.7999574081224734e-01   7.1595961085158466e-01   6.7480366607874342e-01   5.4040838451877438e-01   5.7765293443222776e-01   6.2454462007719813e-01   5.8761087500909748e-01   5.6796267641965548e-01   6.0332119079976498e-01   7.0613334159922381e-01   6.9973684551236437e-01   6.8240965846619328e-01   6.6863977371333139e-01   6.5933196867280452e-01   6.5626570881295676e-01   6.6158915026753418e-01   7.6161576604068215e-01   6.5422402421386316e-01   5.9756007108880727e-01   5.8428516522563634e-01   7.4521786490397668e-01   6.1947543075411637e-01   6.7115420758995714e-01   5.2705826721408888e-01   5.6708052889027072e-01   6.8020319620507741e-01   5.2683520451931021e-01   5.6609571768915679e-01   7.0191378033056584e-01   7.1555222600828972e-01   7.6680402245979384e-01   8.1986080364655212e-01   7.6719380625365530e-01   6.8061947282941571e-01   6.6957431019598113e-01   7.1193122584574808e-01   7.0657554941731848e-01   5.8213011183391827e-01   7.7937617358121614e-01   7.3859048002450067e-01   7.2622860009744616e-01   6.9067284180483479e-01   6.1697096432096810e-01   6.4530105331368859e-01   7.4240304794603162e-01   6.7860766944836481e-01   7.0402099131934381e-01   6.1867046267588177e-01   6.9041510871930112e-01   7.7515249343249149e-01   6.8859806312439586e-01   6.7097184390714459e-01   7.0185499851415356e-01   6.9187281785101196e-01   7.7304117687367591e-01   7.8456960944184306e-01   8.5428144105741621e-01   6.4441121222834430e-01   6.3123152521566583e-01   8.2970241471904194e-01   7.7041775357068332e-01   6.4027743848385998e-01   6.4896945779579285e-01   6.4568514787360465e-01   7.1888920186460337e-01   7.3548160422888131e-01   6.8929973794408639e-01   7.2837038453244296e-01   8.0283553217040071e-01   6.0215811053211743e-01   6.0906629987061212e-01   7.0242199857324161e-01   6.6362902768159271e-01   7.6671484223772124e-01   6.8464735963789658e-01   6.7848959294333722e-01   6.4969670618592013e-01   6.3876954081969750e-01   7.1875015533651410e-01   6.8694191305013275e-01   7.3014227023678779e-01   7.0653999876706408e-01   7.2295641805061850e-01   7.1468352315946493e-01   6.2296319796578081e-01   6.7135646834829021e-01   5.5052969092792892e-01   5.7690165008341432e-01   6.8280118398099909e-01   6.9970424579874391e-01   8.1469918374237937e-01   6.8707229270388281e-01   7.1455267907296627e-01   5.4187784612623813e-01   5.9606752929619056e-01   7.0678048550220718e-01   7.7002526184701470e-01   7.4116128604709686e-01   8.0659706248612051e-01   6.3097251219344641e-01   6.0585463511273430e-01   6.1930395968260699e-01   6.3711566393638974e-01   7.2534795187862222e-01   6.7273026435316552e-01   6.6741541576832175e-01   6.8110029641940872e-01   6.7745941043282543e-01   6.7414780290822229e-01   6.9528623115663757e-01   6.8197504161735456e-01   7.4976906594108017e-01   7.2886642232631493e-01   6.5716973435014114e-01   6.5669858951711746e-01   6.9349610150082908e-01   7.1196376169500575e-01   6.6424308925370168e-01   6.7833130963838484e-01   7.5257128949819319e-01   6.7612195220684401e-01   6.8189297147653827e-01   8.4435327699624907e-01   7.9061299070711855e-01   7.4992271480521067e-01   7.2432670502131768e-01   6.4817961700471249e-01   6.2993888127481146e-01   6.9502657449889838e-01   6.8810160977030965e-01   6.7229705581748478e-01   6.5891603110296237e-01   6.9242095497004652e-01   6.7124555796416885e-01   6.5065555973695588e-01   6.9737571683639155e-01   7.1047567889578644e-01   6.9671539903768109e-01   6.1456571765668289e-01   5.7956105011609338e-01   6.5885124562014030e-01   6.7880769824175813e-01   7.0031766406748019e-01   6.8990042614673530e-01   6.2278886837866454e-01   6.3775355422853086e-01   7.8705000039344997e-01   5.6521865748213096e-01   5.6391467998906675e-01   6.4388824586456594e-01   7.4760263472658339e-01   6.6817242497611318e-01   6.8260581841027013e-01   6.8291763037098840e-01   7.3905857237802852e-01   7.0799228850362106e-01   7.8194773009307139e-01   6.6194023607316621e-01   6.7940532088769223e-01   6.2883208734575857e-01   6.4126046275566240e-01   7.6350653608012264e-01   7.5213480888521334e-01   6.4455912521795045e-01   7.4148314712228935e-01   7.1156032973318883e-01   6.5543531408685818e-01   6.3469304116425129e-01   6.5621921368884117e-01   6.7581052763518812e-01   6.9408996138977008e-01   6.6936129529137967e-01   6.7817654768047653e-01   6.4431930510597424e-01   8.52130580304404