<?xml version="1.0"?>
<VTKFile type="UnstructuredGrid"  version="0.1"  >
<UnstructuredGrid>
<Piece  NumberOfPoints="1109" NumberOfCells="1972">
<Points>
<DataArray  type="Float64"  NumberOfComponents="3"  format="ascii">2.214466202533946e-18 1 0  2.457620828840953e-18 4.909827031747117e-18 0  1 3.557176791780842e-18 0  1 1 0  0.7888677056979778 0.5326650983219949 0  0.79357399518869 0.500031776874477 0  0.7888909285865913 0.4672074387016288 0  0.7760849416440961 0.4371383241748088 0  0.7568201549866201 0.4112194313568342 0  0.7332059237328994 0.3891851104235485 0  0.706466097746303 0.3671297024187252 0  0.676241901737379 0.3394464069395315 0  0.6458876922571373 0.3082580823628262 0  0.6213701062954466 0.2797220699213989 0  0.6000598313342481 0.2544886919461069 0  0.5763237361017211 0.2328822174523043 0  0.548224615897038 0.2165067155040798 0  0.5164575254103864 0.2077639088498596 0  0.4836500712058166 0.207711297033461 0  0.4518720498846835 0.2165218244893518 0  0.4236831388699265 0.2328491751463903 0  0.3998153912233289 0.2545942351247998 0  0.3787053065640013 0.2796460696471367 0  0.354108557470277 0.3082203464891285 0  0.3237453600666734 0.3393365797880664 0  0.2934452758763141 0.3670430909471091 0  0.2668466165337228 0.3893028658139699 0  0.2433052688829523 0.411211344071085 0  0.2239319895980312 0.4370875771860834 0  0.211122893751703 0.4673329444746955 0  0.2064849976537009 0.4999008476734867 0  0.2109632054957659 0.5326835079353024 0  0.2238646969043663 0.5628025712947075 0  0.2431095921127095 0.5887550559513308 0  0.2666931755776589 0.6107890506696353 0  0.2935390634706587 0.6329864980613605 0  0.3232941606943894 0.6609590981957099 0  0.3536925702424073 0.6917896520081002 0  0.3787265451291405 0.7203104225428517 0  0.3998529887594805 0.745537024451858 0  0.4236889834796371 0.7671214892385809 0  0.4517817193646522 0.7833862088002725 0  0.4836150075183382 0.7922427726540422 0  0.5164393017838786 0.7923130464470831 0  0.5482032070442843 0.7834923499349795 0  0.5763784964053803 0.7671215176825108 0  0.6001501846194504 0.745480564520164 0  0.6214703693187923 0.7205723061233007 0  0.6462152318841854 0.6920492143731494 0  0.6762106728415218 0.6609372567812595 0  0.7067751610974827 0.6330990425343024 0  0.7333967040377786 0.6107836139427837 0  0.7569418142146107 0.5886972985645622 0  0.7760761789763524 0.5628689244493218 0  0.5 1 0  1.34556878254469e-17 0.5 0  1 0.5 0  0.5 1.231974357908609e-17 0  0.75 1 0  0.25 1 0  2.727020771180823e-18 0.75 0  6.022185820658819e-18 0.25 0  1 0.25 0  1 0.75 0  0.75 4.406389219006651e-18 0  0.25 5.223113403565622e-18 0  0.625 1 0  0.375 1 0  2.964408019918757e-18 0.625 0  4.980668423407503e-18 0.375 0  1 0.375 0  1 0.625 0  0.625 1.081337868963498e-17 0  0.375 7.203721925378225e-18 0  0.125 5.442500907524212e-18 0  0.875 8.835721268276909e-18 0  1 0.125 0  6.236314743262635e-18 0.875 0  0.125 1 0  0.875 1 0  2.389182379677305e-18 0.125 0  1 0.875 0  0.1996446146016433 0.1750559385798751 0  0.8002829295903964 0.8247339638373592 0  0.8004115944948543 0.1749881477281213 0  0.1793446919787769 0.8205467799787899 0  0.8864012229334816 0.2304059516342811 0  0.1453850236296522 0.2623681721700646 0  0.8545452037228243 0.7378678882998044 0  0.1470923322299489 0.7068932469587511 0  0.2726949237432777 0.853415963093315 0  0.09296953036325964 0.09303470548259074 0  1 0.0625 0  0.9375 3.967604458350174e-18 0  0.0625 1 0  2.734850204955436e-18 0.9375 0  0.9069120912777988 0.9070324063979912 0  0.6830387751363237 0.1378689141758124 0  0.3170492682039902 0.1379635978307495 0  0.7163776584195555 0.8552801187587583 0  1 0.6875 0  1 0.3125 0  0.1204431413173424 0.3343268168261364 0  7.865426605984794e-18 0.6875 0  0.1875 8.387049133108381e-18 0  0.8125 1.183620106216171e-17 0  0.8657701257155379 0.3144780737720647 0  0.3125000000000001 0.9999999999999999 0  0.6875 1 0  0.8968788917042032 0.1031044321428186 0  0.8711403839500187 0.672766513595044 0  9.460226806560978e-18 0.8125 0  0.09813484285111007 0.9018418881107935 0  0.09362832238771761 0.8090445319146908 0  0.7786545518723064 0.2691307804351461 0  0.3323648355514863 0.8719831761441421 0  0.6370393222679757 0.8743348874079164 0  0.8876899505826233 0.8208800486283824 0  0.1124690296959241 0.1788238530316675 0  0.8125 1 0  0.1136573929584788 0.6279536025297151 0  0.8818660749489923 0.3649370827949967 0  0.2654637964948864 0.7549051842987903 0  0.6334719000710358 0.1122797939263734 0  0.3125 5.966923861186119e-18 0  0.3718892095042285 0.1129160564430954 0  0.2875366354440594 0.2003794890164676 0  0.7600655761499644 0.1118367595012699 0  0.1891867009193396 0.906493543270956 0  0.5625 1 0  0.4375 9.172340410109688e-18 0  0.4375 1 0  0.5625 1.42567712588192e-17 0  0.2235321478806124 0.1031488666527366 0  0.8798919771652859 0.6146057333544028 0  0.715702425935866 0.2133042396858755 0  0.7927217353943676 0.905412871242831 0  1 0.4375 0  3.885134621144541e-18 0.4375 0  1 0.5625 0  1.021879002992241e-17 0.5625 0  1.01598519434926e-17 0.3125 0  1 0.8125 0  0.0625 4.294703203160986e-18 0  4.181585893660444e-18 0.0625 0  4.390646640909355e-18 0.1875 0  1 0.1875000000000001 0  1 0.9375 0  0.9375 1 0  0.6875 1.39446636365707e-17 0  0.1875 1 0  0.7286820981350853 0.7489657486900013 0  0.234074128986211 0.2658716807066889 0  0.8317667669293555 0.08747017560696997 0  0.2263466086050626 0.7081177878602878 0  0.380512914207552 0.8860446045460894 0  0.8902139356192682 0.4303080464709861 0  0.1098509396881898 0.5698025354461048 0  0.1034070610831296 0.4220239162218552 0  0.5785410592532513 0.1005056574184317 0  0.5905436077520787 0.8847227230817067 0  0.4187421480867791 0.103838082813755 0  0.09146593629097008 0.6845581230395117 0  0.900846698445997 0.5261316967993021 0  0.09917014193702144 0.4737812163663273 0  0.1915056059550725 0.3285851404204614 0  0.1603344127873558 0.09593897808900259 0  0.8996865776048617 0.5732119320045845 0  0.6555076931970779 0.8153383374585182 0  0.6979368661255119 0.9112196689490875 0  0.09522705332131658 0.3728694491679571 0  0.9172005076342612 0.1616507983987988 0  0.4254934864531455 0.8981198551451235 0  0.5333003184446101 0.09968622084120742 0  0.4733890516875204 0.09331154152343893 0  0.470624399818128 0.9040345225887635 0  0.526506034084067 0.9066856654359713 0  0.7978197368365123 0.6729897239706903 0  0.770135384078473 0.712251178861998 0  0.06712025475389552 0.7552606644537752 0  0.6797623647599652 0.7723332074797423 0  0.3125684095181823 0.7722567194925315 0  0.06661161525589927 0.2444704902256542 0  0.9170431206627772 0.7302625400058345 0  0.897792166006937 0.4766684520660335 0  0.1022428396185565 0.5234044600791121 0  0.8431318716564836 0.8928534417164166 0  0.7924374129144949 0.3177394515290907 0  0.1763989577076945 0.638424660030929 0  0.7563780205287267 0.9358524754181928 0  0.1529844634813727 0.7535059262307854 0  0.2294679813357552 0.8370905734056402 0  0.2440139868885462 0.9346388818074718 0  0.8227327820069997 0.7731523176292312 0  0.8489593038936615 0.1988525911081631 0  0.9250539366688713 0.2581787515687185 0  0.9237465704814386 0.7883443829248302 0  0.2603748749943799 0.07690835664750922 0  0.3393493505653817 0.8015376814206285 0  0.7424268464876321 0.8171100989501976 0  0.6982690407086074 0.06119368508113873 0  0.3017295033748867 0.0611588672295233 0  0.7372041220440004 0.07268528806456007 0  0.885104655204013 0.05074096144971074 0  0.05064780369815859 0.1762308592765695 0  0.1751041531051687 0.2176322466279352 0  0.9265392018098088 0.3173609642543853 0  0.2088131634795326 0.6580171599469284 0  0.9546227958588309 0.1091292816016561 0  0.2936823224938143 0.2749027689663884 0  0.06428083369163827 0.8655108038750261 0  0.1090800550123021 0.9544102142849321 0  0.1751476152976219 0.04802632202362869 0  0.8108813709702111 0.3694839748344822 0  0.7055972626077778 0.2758137895733973 0  0.1131382408869972 0.04788844598886974 0  0.04438172238505725 0.1086505458197996 0  0.8831325685114291 0.9490418504589543 0  0.9557325906229767 0.891462866723051 0  0.139070797933348 0.1407286835640333 0  0.9517425355024328 0.9517553217872725 0  3.902663195133986e-18 0.03125 0  0.03125000000000001 2.500399893528075e-18 0  0.05179907079664079 0.9483068637637568 0  0.9446502372815636 0.05532366040017295 0  0.8290137249356623 0.6273201956374205 0  0.2029967558978971 0.7631928998582697 0  0.2108043667428167 0.298784175272451 0  0.1177888515858082 0.2946539293805508 0  0.28125 1 0  0.2868132276161434 0.9297202589138134 0  0.1220238833299742 0.8403399733670358 0  0.6367073175977702 0.1750099345656393 0  0.6712594713948657 0.2096096340288215 0  0.363850749870177 0.171654066366706 0  0.3335969939264383 0.2092087927215438 0  0.852921191341609 0.4055633992384379 0  0.7561228872377632 0.2264737448502091 0  9.55272412933981e-18 0.28125 0  0.1934029642129363 0.3622374423685424 0  0.6296746023006113 0.9321031033175897 0  0.2467804821428168 0.2227970702820163 0  0.8578970554624985 0.2796992989487959 0  0.9437903386493195 0.7040264515650767 0  0.9164057134722127 0.6578683862991186 0  0.3882943029402315 0.8147502529539349 0  0.2718822650821737 0.1383811024814467 0  0.05126587998231336 0.05123310724259631 0  0.5544796190437635 0.8689569921751933 0  0.1453141312822657 0.90421727972216 0  0.1706770541847019 0.4031768454890349 0  0.944342563187978 0.1901034793472826 0  0.8543114121011661 0.1476871942461105 0  0.7129257238612221 0.1514335422190616 0  0.9440896492551376 0.8463854282082689 0  0.84375 8.184328684686451e-18 0  0.8046408555099966 0.05866416112038808 0  0.4990506017496562 0.8586681897715739 0  0.5000613218774668 0.1440903820499231 0  0.8712504518611576 0.8603346852852204 0  0.7344317267904955 0.3190341769339018 0  0.09365538777025179 0.2207039846439861 0  0.84375 1 0  0.8393016676394944 0.9453543768015992 0  0.1501037353932873 0.5901137357113519 0  0.07476209144060085 0.609348155233731 0  0.4160736165052057 0.8398993067561463 0  0.59375 1 0  0.06468122019075181 0.2948487325524703 0  1 0.34375 0  0.9271464343253716 0.3797499254362006 0  0.26763045026
[...]
<CellData  Scalars="dens"> 
<DataArray  type="Float64"  Name="dens"  format="ascii">7.4023418349126069e-01   6.2530038179888559e-01   6.0511098693900300e-01   6.2483022850940861e-01   6.6449654038961914e-01   5.5463684480779984e-01   6.5435193848964135e-01   6.6057811455768700e-01   6.4025962515874457e-01   5.7620391076385058e-01   6.6855118733043817e-01   7.2132113382011431e-01   6.2025824468219892e-01   6.5473641395506244e-01   6.8453411615498083e-01   6.5079594359513071e-01   6.9245369669935142e-01   5.7770634459827452e-01   5.6275422530862917e-01   7.3670392298714149e-01   6.7046557695148490e-01   6.5547933353779975e-01   6.4497266019287858e-01   5.9692207761047933e-01   6.8388953494484694e-01   6.4060235401290344e-01   7.2875384761320572e-01   6.4433468566663032e-01   6.0381655705689541e-01   6.5509656829680218e-01   6.6156774666446283e-01   5.7200146575739530e-01   6.4109726451955484e-01   6.7259344311644231e-01   6.1066356066132477e-01   6.6319274740719014e-01   6.0266546779430907e-01   6.2646735815485710e-01   7.1474859855584449e-01   6.3144508432087476e-01   6.5422474107848627e-01   6.9098233244015184e-01   5.9356413591613999e-01   6.0507975706502071e-01   6.4679232271931320e-01   6.2603534731846056e-01   6.2703915222641382e-01   6.2668190813574365e-01   6.5286513587563677e-01   6.4461529937960127e-01   6.7635001079973200e-01   6.4568341376304894e-01   6.2607405415148853e-01   6.5673486849481633e-01   6.5166456304148834e-01   6.6377235294167491e-01   6.7132970194693886e-01   5.9913309385857327e-01   6.4539828644107544e-01   7.2543908438151838e-01   6.8236250717771108e-01   6.2331140132879315e-01   6.4960347720662359e-01   6.2570262202542948e-01   6.9409727857446890e-01   6.0827548627781247e-01   7.3389234064042108e-01   8.3393554644776990e-01   6.5170593494674101e-01   8.1239267841801721e-01   6.5461323517488856e-01   6.6519148576769738e-01   7.2894479284261648e-01   6.4623451805682763e-01   7.0645283317002661e-01   6.5815445516832494e-01   7.2421738788638834e-01   6.6281305930947487e-01   6.4937716343187080e-01   6.2850218513445044e-01   5.8663281516520283e-01   6.6389054975186301e-01   6.2079857419130091e-01   6.6757045462933728e-01   6.9097762347859515e-01   6.0166077699818743e-01   6.1947649676953498e-01   6.6081839089853756e-01   6.5179883638297309e-01   6.3379247162325858e-01   7.3490584090769684e-01   6.0545166474395951e-01   6.4680455161243533e-01   6.4739685211970455e-01   6.1203251051274032e-01   6.6487885381957545e-01   7.8897493684717790e-01   6.8529663734717006e-01   6.9769199817876004e-01   6.0243292636988943e-01   6.6248498812920997e-01   6.5831972928646465e-01   6.1718691411064885e-01   6.2569469821070933e-01   6.6856388300740544e-01   6.8311853936363653e-01   7.1900035874005597e-01   6.0882006896239405e-01   6.0835207351552734e-01   6.7117031674561645e-01   6.5906343114410237e-01   8.0689696710141989e-01   7.1337310393287634e-01   5.8889720905316956e-01   5.9258354707503769e-01   6.2094868090337330e-01   6.6786727915870414e-01   6.2030913436977353e-01   5.8142775693174498e-01   5.5882229522692595e-01   6.2658609252311859e-01   5.8122300116941583e-01   5.8967868238551879e-01   6.1038919716203655e-01   6.4657494839671614e-01   6.1607156223594584e-01   6.4467638544845340e-01   6.3835039276109951e-01   5.8912143784594817e-01   5.5628428661013052e-01   6.2201044702926356e-01   7.7480772755953586e-01   5.7369106773173162e-01   5.8756534918049097e-01   6.6019934376922063e-01   6.6964438100093748e-01   6.8023875464471406e-01   6.5607856471747483e-01   6.5019420755722057e-01   6.4626315490438058e-01   6.2468404948097189e-01   6.7717378590670763e-01   5.1193561639779395e-01   6.4444128808922407e-01   5.9904833366028809e-01   5.8922663004907039e-01   6.0817564047625383e-01   6.7278310246734352e-01   5.8465365977536166e-01   6.5997060961161746e-01   6.9295868090336421e-01   5.4586814707744247e-01   5.7946944957651936e-01   5.4876639324356091e-01   6.0640742837337702e-01   5.9429732589359519e-01   6.1359347963181532e-01   6.8820277462637713e-01   6.1743646368418137e-01   5.8299329432233837e-01   5.6124627876655309e-01   5.0053009948215532e-01   6.2359095193961911e-01   5.4036411044202992e-01   5.2838656312648569e-01   6.7529550613521205e-01   7.2449969028613959e-01   5.9746411950909040e-01   5.3082284016664649e-01   5.6289091174669525e-01   7.0589992796693379e-01   6.2198981338267756e-01   6.0490542130627134e-01   6.3504898755594219e-01   6.2913104473867898e-01   6.8602799348184529e-01   6.1638869512505057e-01   5.9050722713454484e-01   6.0549423975498162e-01   6.0947857907506586e-01   6.3594946337005265e-01   5.8040861403586697e-01   6.2496631494722987e-01   6.3571275883516554e-01   5.8020894840059756e-01   6.1156620173976672e-01   6.3105201112130860e-01   6.4727244791745209e-01   6.9990694131609921e-01   6.5605463907434114e-01   6.9741092300288754e-01   6.1845797252049350e-01   6.4620677286792394e-01   5.2581721157901939e-01   6.1246480976571205e-01   5.5942444534264513e-01   6.6565662546284421e-01   5.9178194036327059e-01   6.2246157464452978e-01   7.9145925896536706e-01   6.1269426913062919e-01   6.6379070862753087e-01   6.5768509457493340e-01   6.3732086580073666e-01   6.5285171986311807e-01   6.6457836903314171e-01   6.4495178713227297e-01   6.3116996538029713e-01   6.1066806513305427e-01   6.2492259060624578e-01   6.0932342824064423e-01   5.8300069835137180e-01   6.5332763145890627e-01   6.4313164770745401e-01   6.4029968569819673e-01   6.3691774948641433e-01   7.0662239913517999e-01   8.1936804605320412e-01   6.4516836025215518e-01   6.1116694830077578e-01   6.7114577299075417e-01   6.7068823062240068e-01   6.4139688678934026e-01   6.4841499047852258e-01   6.4910439732601455e-01   6.2161119845957669e-01   6.8290457128025372e-01   6.6035047306708572e-01   6.1708062130697583e-01   6.0193401716972472e-01   6.1344722429110443e-01   8.7319641640079726e-01   7.0608612388414571e-01   6.1465625342172092e-01   6.6234439702483450e-01   6.0835219207084468e-01   6.2117806834257983e-01   6.8983512391970392e-01   6.9903942438834965e-01   6.2591115446822709e-01   6.8427999137688145e-01   7.5905080636907751e-01   7.0686842305884245e-01   5.8671171134719502e-01   6.4472835452464772e-01   6.5014227928998236e-01   6.2964227021372099e-01   6.4010991378327931e-01   6.8458037718806841e-01   7.8249243684632441e-01   6.3039777947876385e-01   6.2248970851170760e-01   6.4334131382523541e-01   6.7092179672296026e-01   7.3894480823393971e-01   7.7756192478702013e-01   6.9755382096964624e-01   6.9398651295834746e-01   7.4248288726432254e-01   7.3448439185803516e-01   6.0687464335757724e-01   5.8362113486829315e-01   5.9005203806835516e-01   6.4021946247637884e-01   6.7696916220647041e-01   6.4479947333420295e-01   7.0448917004063993e-01   5.6228187604190727e-01   6.4508178432337893e-01   6.0518008344540142e-01   5.9543607537743970e-01   7.0383435529121796e-01   7.8301899888536808e-01   6.8291626075049550e-01   7.2604136328091995e-01   6.1521935615190793e-01   7.8959487830737618e-01   8.2786458066699775e-01   6.6081523336002845e-01   5.9199673885788739e-01   5.8826643214915897e-01   5.3938625033680254e-01   5.8043447057330788e-01   7.7583516238721373e-01   6.7948596192320754e-01   6.0879124634605997e-01   6.0744930188509183e-01   6.4598910702311807e-01   6.3701777029486739e-01   6.2389601854625465e-01   5.6808541238780608e-01   7.8600392251625639e-01   6.3786999286945867e-01   6.4421826666538806e-01   7.0841830209276557e-01   7.3491217504847606e-01   6.8686364254751875e-01   6.0480587963822441e-01   6.1272922006156749e-01   7.6336638330556672e-01   6.4516542277994826e-01   6.4161515621111331e-01   6.0340897380803726e-01   6.2688332026092808e-01   6.7087557649026519e-01   6.5824451412270113e-01   6.9761902519812069e-01   6.4038646613172689e-01   6.4348505308846016e-01   6.6416956607318145e-01   6.3668865505875816e-01   6.4947698001481080e-01   6.2493704762882030e-01   6.2176111290436631e-01   6.2703916253255632e-01   6.1829005699702455e-01   6.5338492173993423e-01   7.9429128720172693e-01   6.1980857091430519e-01   6.5532796840972340e-01   6.7025604184481724e-01   7.0934597025875212e-01   6.3766257114843949e-01   6.5919367028939235e-01   7.0330088819517678e-01   5.8083984486256535e-01   6.7537099548739365e-01   7.3495040626342778e-01   5.5360830873593236e-01   5.5389197655579303e-01   6.2686571654916723e-01   6.8132695100439589e-01   6.9124201314077138e-01   5.4345609684870910e-01   5.8026149518484638e-01   5.8229451886371386e-01   6.0186297360767449e-01   6.2468976223042760e-01   5.6195446438328078e-01   5.9356875433357215e-01   6.5366351576664761e-01   6.6151155040409026e-01   6.3217418817203452e-01   6.1124447903208756e-01   8.1140242465311641e-01   7.3568998387423545e-01   6.1774770466031415e-01   8.5301812375381081e-01   5.6229251296448401e-01   6.1210173619551089e-01   7.2142249111773216e-01   6.5962748967445473e-01   5.8359211054897953e-01   5.9135613053229730e-01   5.5164428047976122e-01   7.0548377245198346e-01   6.7274112255051288e-01   6.0812716379201703e-01   6.4037527987658316e-01   5.9240852429319979e-01   7.3368767543013225e-01   6.3746506556621085e-01   6.1844782228591055e-01   6.8545777978012468e-01   6.8251119100297242e-01   7.4395603265271770e-01   6.8076390164413425e-01   7.2563747583025739e-01   7.3279333116741496e-01   5.9483322952826556e-01   6.4252177902770691e-01   6.6915727500340427e-01   6.1739354246994782e-01   5.7038785640810818e-01   5.8095479748209300e-01   6.7526302902051838e-01   6.5010087705451658e-01   6.5275265983163944e-01   7.7737984155207607e-01   8.5254067695450408e-01   6.6342824500369491e-01   6.6812939976677976e-01   7.1038113675069936e-01   5.9622845785090473e-01   6.0036539749203910e-01   8.4959810254122259e-01   7.6282142362587524e-01   5.2694845820895053e-01   4.9270206650428844e-01   6.9735018236124569e-01   7.8979591876364830e-01   7.5072891541946785e-01   5.7442830296173930e-01   5.4906889805704440e-01   5.3322526836201600e-01   6.6846438617005366e-01   6.0231023438551334e-01   6.3664868752514459e-01   6.1337737352420740e-01   6.4632952198700355e-01   5.9638558938930530e-01   6.1698457023220721e-01   6.1240166765698223e-01   6.1703094527170166e-01   6.1896351617507805e-01   6.4968082197582910e-01   6.9048280104697513e-01   6.5811859734212297e-01   5.7651184741062478e-01   5.4628397131935647e-01   4.9078954066989783e-01   4.9227291735361584e-01   6.0820702397548232e-01   6.0751667869438697e-01   8.7650500126083297e-01   7.7523255895230103e-01   5.9063627873607971e-01   5.2528594499432446e-01   6.0743164174048714e-01   5.8251743160901859e-01   6.2409281407398398e-01   6.0281395479275091e-01   6.6582227725049037e-01   7.4719202746365843e-01   5.0912041508043127e-01   6.0099351036262172e-01   5.7404091306694449e-01   6.4222613512496096e-01   6.4918674304548352e-01   6.3705840980666328e-01   5.8656295841956707e-01   6.0746480643245271e-01   6.0366011862287405e-01   6.4181200599326182e-01   5.6033187932264983e-01   5.8758496279706329e-01   5.1305130979469826e-01   7.6296656643984939e-01   5.8800575348154360e-01   6.2373433824900670e-01   6.4881256922952357e-01   6.6857756893030829e-01   6.5574884670970712e-01   6.4394647997524979e-01   7.3415923889351264e-01   4.9279075986120946e-01   7.0548410661616145e-01   6.3419914216028206e-01   5.9541478202743081e-01   7.3843140506020688e-01   6.8563914320660579e-01   6.6117856209742554e-01   6.5849602482505021e-01   6.2233136127299260e-01   6.0000474220564171e-01   6.1407142911984258e-01   5.9036335353656988e-01   5.8489786045405179e-01   6.0551666115692371e-01   5.8959655558423174e-01   6.5623616662011652e-01   6.5677757209409215e-01   6.0810976525837257e-01   6.1202447661194626e-01   6.1061607000153606e-01   5.8970956372175043e-01   6.6481327901316500e-01   6.3634828840259705e-01   6.8636151605517848e-01   7.0737501179717643e-01   6.7300233628047790e-01   5.9058260770772053e-01   5.6275638779471449e-01   5.9790581061260595e-01   6.6008262408964113e-01   6.2156075007717326e-01   6.3301586593010750e-01   6.4378581617612984e-01   5.2313676812863075e-01   5.3916055381693251e-01   5.0097285804679603e-01   8.0941487673261703e-01   7.1563316597985704e-01   8.5346316844073922e-01   5.9641748517014725e-01   5.6279480341284838e-01   6.2917245415746048e-01   6.3054266425093475e-01   6.6294409983918257e-01   6.5175021419304624e-01   6.0929555974575700e-01   6.2395968795793255e-01   6.1426912337721695e-01   6.1686039762423572e-01   6.6139635992085977e-01   5.8411814943170026e-01   7.5571945427649168e-01   6.6292877358818958e-01   6.1046718420278234e-01   6.5006311518235949e-01   6.5288165862099468e-01   6.7012054731134030e-01   6.8315637715922461e-01   7.2174709680151050e-01   6.9280703343715688e-01   6.8910644130877885e-01   6.4183615259391091e-01   5.1130356960551793e-01   5.7596131447061527e-01   5.9276716174738753e-01   5.4848703029675216e-01   7.4228222108594388e-01   8.5997938882335956e-01   6.9270173684548519e-01   6.8105410160769475e-01   6.4284850644946745e-01   6.0934891616164544e-01   6.3774594425050513e-01   6.4082912531075575e-01   5.9552671917671363e-01   5.8764594298232808e-01   6.1996488695132135e-01   6.3634272739802167e-01   6.1175534276879651e-01   5.4746059141896475e-01   4.9064669210087686e-01   6.3562521674237105e-01   6.5651423512627816e-01   6.2070238227546082e-01   6.4741560440268320e-01   5.6652355560836809e-01   5.6960929658868720e-01   5.9056414011499747e-01   5.8430362202421748e-01   7.3421558100545958e-01   7.4634371395867471e-01   6.3247850845649178e-01   6.6583411421833594e-01   6.8206252680508483e-01   6.3498550803573861e-01   6.3844880228362344e-01   6.5292961782549275e-01   5.5788412649048802e-01   5.4274071432434678e-01   7.0744615545844347e-01   6.9538006900655736e-01   6.8101100006491089e-01   7.3954935221390850e-01   7.3141561195210314e-01   7.7867764242870929e-01   6.8875366412363970e-01   7.0921825385686654e-01   6.6947702336086623e-01   7.3172106858403185e-01   6.5197539500531265e-01   6.8573400323564171e-01   6.8810889819562548e-01   6.8121306438891416e-01   6.7212793122898340e-01   6.9246778716963575e-01   6.8815502725020339e-01   7.1277847707135855e-01   5.6220107520783591e-01   5.4102803887754891e-01   6.1313185215087895e-01   6.2006825376618746e-01   6.4583059394056275e-01   5.9848380551373670e-01   6.5599250812445453e-01   6.3472859766372480e-01   5.7836350429768568e-01   5.4681684500367078e-01   7.0265011648143616e-01   7.1029942494029452e-01   6.6073591649491947e-01   6.5209475736335021e-01   6.4587600390439437e-01   6.1827922806047630e-01   6.3915643570067882e-01   6.5100892422073653e-01   5.2568162566108478e-01   5.4860836888422770e-01   5.4834141797886926e-01   5.6029218566756223e-01   5.0029545667035302e-01   4.9296418082155857e-01   5.2594722231935420e-01   5.7686050899381858e-01   5.7862021769805516e-01   5.4920698535091239e-01   5.8371749448419252e-01   5.4631297106856225e-01   5.0350946093391069e-01   5.4051411954556494e-01   5.6662963590899096e-01   5.3754519877551910e-01   6.6164802598063643e-01   7.1184612846607875e-01   7.0280038440992432e-01   7.2767148956612615e-01   7.4685410139282560e-01   7.0668948700100931e-01   8.3596501980274918e-01   8.3521669126089515e-01   7.8394095225940030e-01   7.4107192425011914e-01   5.9788216991879517e-01   5.4466671774684983e-01   6.6238572288863717e-01   6.8504574476524549e-01   6.3685084584180252e-01   6.3648248697845033e-01   5.7328355324016289e-01   6.4821869237656249e-01   6.6609186163595968e-01   6.7675207931068027e-01   7.7108600042216424e-01   6.4961219211525201e-01   6.3686682082807911e-01   6.1898558320691532e-01   6.1624903492997452e-01   6.3475849434919962e-01   6.4203387220455921e-01   6.7529152912484081e-01   6.2745015447340113e-01   5.0274891634783014e-01   5.4252676755367357e-01   5.9510703339407600e-01   5.5230436430451735e-01   5.3100961032502347e-01   5.6753908445517198e-01   6.8780956943427252e-01   6.8092824704370503e-01   6.3730142354712227e-01   6.2178042947763235e-01   6.1237770031244210e-01   6.0856071894216868e-01   6.3515783171797824e-01   7.5153939120048219e-01   6.2227631151997864e-01   5.6055996729695245e-01   5.5139367990492105e-01   7.3510459637537606e-01   5.8929593203446173e-01   6.5052280271745688e-01   4.9098430525857001e-01   5.3332465227086767e-01   6.5909291789056157e-01   4.9078834352683409e-01   5.3211473748563376e-01   6.8304340961832255e-01   7.0086551823306498e-01   7.7464323182753969e-01   8.5000849618457297e-01   7.8775270268522468e-01   6.4874481049085964e-01   6.3773324735611592e-01   6.9168036319450765e-01   6.8437232664550685e-01   5.4591496338923140e-01   7.7409618914889677e-01   7.2647192695067453e-01   7.1316056441351783e-01   6.7076921647776233e-01   5.8763055974502754e-01   6.1484966138697472e-01   7.3060505953401988e-01   6.5666690287722840e-01   6.8372330056729180e-01   5.8986702915287703e-01   6.7057934456920831e-01   7.6820837014824850e-01   6.4908426006353492e-01   6.3088930673104171e-01   6.8084060101203836e-01   6.7111792420588823e-01   7.6658824271544490e-01   7.8994724300876373e-01   8.8266746253689565e-01   6.0884390208737549e-01   5.9514547956186226e-01   8.3588342728409526e-01   7.6125559684178223e-01   5.9526015074603711e-01   6.0486591758606456e-01   6.1377848320551109e-01   7.1022959262230279e-01   7.4308429660233621e-01   6.8040839194604630e-01   7.1252467989483537e-01   7.9989405181842943e-01   5.6358889888815800e-01   5.7316538399074601e-01   6.8871613279260102e-01   6.3558651662151699e-01   7.8952418791415702e-01   6.6247735363126381e-01   6.5500163770134390e-01   6.1448513769052104e-01   6.0231583740413608e-01   6.8208500822105478e-01   6.5435772921731583e-01   6.9162790386032291e-01   6.6894843015028349e-01   6.8664658134246770e-01   6.7792111667264154e-01   5.9432211787774303e-01   6.4792766485266362e-01   5.1521086988147113e-01   5.4261365352421964e-01   6.6268439583594096e-01   6.8696319537784489e-01   8.4808798829969312e-01   6.6681012446138033e-01   6.9825620895428353e-01   5.0407044432924097e-01   5.6238980612753264e-01   6.8691874800799158e-01   7.6389324341319909e-01   7.2624791479243134e-01   8.0658014576906945e-01   5.9777571238271188e-01   5.7143845432385021e-01   5.7313846582795014e-01   5.9555159965619953e-01   6.8499350781741319e-01   6.2813450587659891e-01   6.4274866570590083e-01   6.6018100421318970e-01   6.5734150250984569e-01   6.5229801887158678e-01   6.5852861228460391e-01   6.4921444719177579e-01   7.5783812212470580e-01   7.3645751570435114e-01   6.2198357046760633e-01   6.2293409324683413e-01   6.7103271983861412e-01   7.0109400756576146e-01   6.2541966857226339e-01   6.4842485070931200e-01   7.5621029335465995e-01   6.4663691079690111e-01   6.5294853716350243e-01   8.5896683297826071e-01   7.9959645804663582e-01   7.1311945547393329e-01   6.8515247863745499e-01   6.1685030163985821e-01   5.9732951099254628e-01   6.5702061291274449e-01   6.5038211773336518e-01   6.3739145042374690e-01   6.1942415272531504e-01   6.7346481245362955e-01   6.4536996062065066e-01   6.2243637238415284e-01   6.8052638753073802e-01   7.0257489484316271e-01   6.8796605262269339e-01   5.8099681161228378e-01   5.4330263129066925e-01   6.2215192871174985e-01   6.4321310375094409e-01   6.7974920534211580e-01   6.7177314376519015e-01   5.7421852473998880e-01   5.8995351013832076e-01   7.5488359733533927e-01   5.3054991013992259e-01   5.2918361688195525e-01   6.1831391830128013e-01   7.3723804165564388e-01   6.3661834274332718e-01   6.5309769162193931e-01   6.5848867335755212e-01   7.2783867437420102e-01   6.8390017949192128e-01   7.7916124992145042e-01   6.2862238226950451e-01   6.4923231780670332e-01   5.8432903694308991e-01   6.0556776457020145e-01   7.2902535864692475e-01   7.4290390766751246e-01   6.1535035198727739e-01   7.3912708891143775e-01   7.0359470680870206e-01   6.3063067227456016e-01   5.9759167690257997e-01   6.1533152390832724e-01   6.3939427169459762e-01   6.7214698157467867e-01   6.3954456643948165e-01   6.5623656807627850e-01   6.1765151525890760e-01   8.69213970014480