<?xml version="1.0"?>
<VTKFile type="UnstructuredGrid"  version="0.1"  >
<UnstructuredGrid>
<Piece  NumberOfPoints="1109" NumberOfCells="1972">
<Points>
<DataArray  type="Float64"  NumberOfComponents="3"  format="ascii">1.328679721520367e-18 1 0  1.883142112918233e-18 1.74656673132113e-18 0  1 1.445103071660967e-18 0  1 1 0  0.8388708887293224 0.5396007202863872 0  0.8422626791180537 0.4999625079935684 0  0.8389007969754212 0.4603840671538297 0  0.8296371935498789 0.4220263890623314 0  0.8151783541610971 0.3852384855516766 0  0.7957704032829236 0.3490568540406284 0  0.7709164870891677 0.3124420547366456 0  0.7404889504265735 0.2765622675359226 0  0.7056999249959657 0.2436463117040474 0  0.6691528276326995 0.2159275692102695 0  0.6327895733516207 0.1938486255451851 0  0.5965150114144286 0.1769699930646962 0  0.5589132662678181 0.1649715673295643 0  0.5198037269301475 0.1587184631038073 0  0.4802250996033886 0.1586671158779236 0  0.441092002839228 0.1649830513551322 0  0.4034921800283935 0.1769554448244119 0  0.3671307110689032 0.1939228156426324 0  0.3308533453779491 0.2158932013683244 0  0.2943423958117143 0.2436134624890556 0  0.2595128558736376 0.2765299170592859 0  0.2290355271198962 0.3125136988085983 0  0.204252229523134 0.3491174066553571 0  0.1849001015377621 0.3852639810077435 0  0.1703699218885532 0.4220138596511256 0  0.1611125616496351 0.4604403119815436 0  0.157783207939074 0.4999047233477049 0  0.160985799189329 0.5395478157406115 0  0.1703191660656775 0.5779790588655812 0  0.1847754445076185 0.6147648966103284 0  0.204184247569115 0.650972257610348 0  0.2290769819446232 0.6875843933500975 0  0.2593599834898278 0.7235264072101024 0  0.2941620309876002 0.7563694093174006 0  0.3309060196225975 0.7840989018995372 0  0.3671646536851236 0.8061612642451436 0  0.4034499955237777 0.8230329740676312 0  0.4410710991733405 0.8349362503859162 0  0.4802106845576424 0.8412876494116779 0  0.5197757349244455 0.8413454570435603 0  0.55891486886452 0.8350221944962998 0  0.5965811578485881 0.8230199489834098 0  0.6329245278191227 0.806127228145741 0  0.6690995181187763 0.7842291615012505 0  0.7057724247942538 0.7564899043305016 0  0.7404477677006087 0.7235768478917097 0  0.7710516780286359 0.6875665407741068 0  0.7958535755748326 0.6509458719076392 0  0.8152534137569764 0.6147572504681837 0  0.8296480153163246 0.5779871031669364 0  0.5 1.000979165800745e-17 0  5.200916461102361e-18 0.5 0  1 0.5 0  0.5 1 0  0.25 2.938001289505662e-18 0  0.75 2.087432861156525e-18 0  6.591820973348276e-18 0.75 0  5.932459289621609e-18 0.25 0  1 0.25 0  1 0.75 0  0.25 1 0  0.75 1 0  0.375 4.50232620336139e-18 0  0.625 6.012238551437051e-18 0  6.299367042327358e-18 0.625 0  7.471002635111256e-18 0.375 0  1 0.375 0  1 0.625 0  0.375 1 0  0.625 1 0  0.125 1.555000259292632e-18 0  0.875 1.472620211379485e-18 0  2.381115378470948e-18 0.875 0  0.125 1 0  0.875 1 0  1.669285303080126e-18 0.125 0  1 0.125 0  1 0.875 0  0.1691042263637736 0.1453525969357989 0  0.830895079978997 0.8545702541440704 0  0.8309314718272944 0.1453218913269352 0  0.1506695279234517 0.8492844041162821 0  0.9081471790547128 0.2075566960521978 0  0.1163026641506426 0.233683444675562 0  0.8836811107700644 0.7664421578640096 0  0.115757990000236 0.7342631752817317 0  0.2441072121843871 0.8832993001345216 0  0.08077650592884514 0.08078440416849336 0  0.0625 1 0  1.469424528918597e-18 0.9375 0  1 0.0625 0  0.9375 1.542769879435206e-18 0  0.9191769176543452 0.9192332564375265 0  0.7060925479762685 0.107000651305067 0  0.2939656064053496 0.1070457482065221 0  0.7439860277346759 0.8855277646385147 0  1 0.6875 0  1 0.3125 0  0.09246609953755119 0.3170790875587387 0  3.058777013438531e-18 0.6875 0  0.1875 1.677409826621676e-18 0  0.8125 4.64993613156353e-18 0  0.895759355086442 0.2919990560186203 0  0.6875 1 0  0.3125 1 0  0.9107956530610243 0.08920014760028018 0  0.900606018793739 0.692649273879982 0  2.980879671280588e-18 0.8125 0  0.08498343996852532 0.9150048820350355 0  0.07703875522189525 0.8278291810833347 0  0.8208749869680473 0.2271615633629997 0  0.6517864934631212 0.9042060914707287 0  0.313353675455509 0.9015051658563353 0  0.9068327240658069 0.8422171954420888 0  0.09322217751690594 0.1576217155021584 0  0.8125 1 0  0.08648266139761017 0.6398394818057701 0  0.9099858322937507 0.3514958351521853 0  0.2203962882715174 0.8001540557527536 0  0.6457956977724451 0.08548807733015519 0  0.3125 2.426837521399407e-18 0  0.3600413092876538 0.08592213015301065 0  0.2486181406455018 0.1599475133234662 0  0.7824028714494325 0.08998227316908444 0  0.1704788907319987 0.9230037325975807 0  0.5625 1 0  0.4375 5.644517175452115e-18 0  0.4375 1 0  0.5625 7.776420686628656e-18 0  0.2027444504799841 0.0835248254698004 0  0.9086994523024396 0.625866654680696 0  0.7569843143654872 0.1710726961922119 0  0.8119389230143649 0.9228698178425174 0  1 0.4375 0  0 0.4375 0  1 0.5625 0  4.749998511633403e-18 0.5625 0  2.697928287404114e-18 0.3125 0  1 0.8125 0  0.0625 1.398412644583892e-18 0  2.506871145204395e-18 0.0625 0  2.52559320052308e-18 0.1875 0  1 0.1875 0  1 0.9375 0  0.9375 1 0  0.6875 1.084900996791713e-18 0  0.1875 1 0  0.775235775328146 0.7956383985023464 0  0.1902308487375112 0.2221250346911752 0  0.8489418346072352 0.07271027551392187 0  0.181286402452604 0.7519970351903658 0  0.3694893551422003 0.9133685234766884 0  0.9165077886361369 0.4245172218310808 0  0.08355374131043616 0.5755732246168516 0  0.07861063932677961 0.4159499292971567 0  0.5844118956047508 0.07639864493190392 0  0.5987220735878938 0.912398954977599 0  0.4124324692813614 0.07893210573286798 0  0.07052425139686047 0.698387133636142 0  0.924421537659355 0.5280043899912199 0  0.07558104688887295 0.4719412859461214 0  0.1492785426533761 0.2947213581606555 0  0.1423385211872429 0.08014324963789878 0  0.923725809374862 0.5785512331359851 0  0.6852925190749758 0.8575143972657012 0  0.7122292078761112 0.9312332095292538 0  0.07240337229542754 0.363535131953811 0  0.9309627150450523 0.1454417209055382 0  0.4199030209649771 0.9225280630466683 0  0.5357449596073238 0.07596351211474367 0  0.471712912031679 0.07111237453247021 0  0.46867364001943 0.9268594838251679 0  0.5282637641148709 0.9288770476813056 0  0.8419380385693468 0.7097635049122164 0  0.8153928647537003 0.7565916636408846 0  0.05334981419105089 0.7682962739280721 0  0.7233033279799175 0.8203647495356632 0  0.2686883487874497 0.8194979391977192 0  0.05291021652166435 0.2315658944670176 0  0.9346957567879627 0.7455265932422519 0  0.9220909596403065 0.4749875914389839 0  0.07794644460296274 0.5250388633289722 0  0.8624853465665322 0.9102482704619483 0  0.8367497846078006 0.2787180309123364 0  0.1350235199099494 0.6629470176693163 0  0.7688064659591669 0.9490264448930568 0  0.1236010388111588 0.7836907429230097 0  0.1982094740953 0.8670327453785732 0  0.2313673328770145 0.9480733367076056 0  0.8548033366321596 0.8062806983177142 0  0.8750811862822055 0.1711259552654694 0  0.9407273930460734 0.2440099142382112 0  0.9381933345230007 0.8039284680454032 0  0.2459199036855446 0.06075594669571948 0  0.3053094251455337 0.846048631888212 0  0.7778768741049208 0.8522444015344467 0  0.7075638666169005 0.04723628543708871 0  0.2924544002350288 0.04721280986892668 0  0.7506866431076266 0.05729249204109788 0  0.8946001134640421 0.0431614442756628 0  0.04165999792997579 0.165603406766779 0  0.1440251231349146 0.185315003651996 0  0.9435689186289364 0.3069474342771377 0  0.1620885762349148 0.6941187654286477 0  0.9612911049031989 0.1006446188088294 0  0.2420712493712176 0.2227577133429696 0  0.05422990145998088 0.8778054132703383 0  0.100629954578022 0.9611061836291449 0  0.1651176199906108 0.03953340130198545 0  0.8554054896574335 0.3437754139691941 0  0.7573791011704223 0.2234034303775618 0  0.1041799815307321 0.04076104196772996 0  0.03785086124603053 0.1004256916233113 0  0.8926611423794503 0.9567233530994351 0  0.9622146558096651 0.8995871295281316 0  0.1183585460928207 0.119863253925411 0  0.9570103852623733 0.9570166805472261 0  1.022126074916044e-18 0.03125 0  0.03125 9.484275458209939e-19 0  0.9508530725521117 0.04914278480579127 0  0.04607130636101549 0.9539540656126473 0  0.8696183904052415 0.6486606908059948 0  0.1663460540597961 0.8004096426542172 0  0.1676421018982059 0.2580981654601827 0  0.09211125351126899 0.2737515769199633 0  0.28125 1 0  0.2750648539640165 0.9453242312036655 0  0.1023860140252034 0.8613897959899842 0  0.6605888080661413 0.1338410771660728 0  0.7096253905845209 0.1638995070636773 0  0.3407294689607989 0.1312432667991349 0  0.2959038679045141 0.1632156011438606 0  0.8882481196488248 0.3935636931901746 0  0.7967258072907886 0.1859802489203197 0  3.713847048112599e-18 0.28125 0  0.1482692625166259 0.3338979594153226 0  0.6359837626190898 0.9483932967736718 0  0.206288311168328 0.1825212449199788 0  0.8874251359993123 0.252383509891463 0  0.9565479590339379 0.7127285565863521 0  0.9361406222529561 0.6681910104164571 0  0.3675986529432883 0.8590693490770749 0  0.2449966747397815 0.110017833152372 0  0.04561976107818548 0.04559563469838964 0  0.5600987867133964 0.9002299017606975 0  0.1282420893124518 0.9193754328674333 0  0.1297189928766193 0.3877489452809307 0  0.9545060629415215 0.178552326390147 0  0.8763204489237079 0.1256032919394132 0  0.7418191284748952 0.1196952285238419 0  0.953387208815439 0.8577640896180087 0  0.84375 3.08837862751145e-18 0  0.816748785797152 0.04782470507153608 0  0.4988882105315844 0.8921558385842535 0  0.5000023523829318 0.109958524360037 0  0.8906113584611129 0.8802082815105093 0  0.7883622147562139 0.2679005597550882 0  0.07583019196803767 0.2016663016547709 0  0.84375 1 0  0.8505199911602398 0.9546329846504907 0  0.1140486055375229 0.6019097981981767 0  0.05678926041834205 0.6152363371642638 0  0.403969320885488 0.8783304743167891 0  0.59375 1 0  0.05011349566958312 0.2845739610690419 0  1 0.34375 0  0.9446521640514933 0.3734504686195652 0  0.2137618014910061 0.2639498911677889 0  0.3104568623180007 0.9514169399962582 
[...]
<CellData  Scalars="dens"> 
<DataArray  type="Float64"  Name="dens"  format="ascii">7.8231744556034732e-01   7.3310029110773678e-01   7.6634071748298749e-01   7.6595401245166972e-01   6.9248775432930409e-01   7.6747875734646809e-01   7.8690723472284874e-01   7.9397954797963377e-01   7.6542280613849123e-01   7.3222370884862176e-01   7.6618194877033141e-01   7.9312501744636499e-01   7.3491741658645326e-01   7.5477718751397882e-01   7.7535594329848112e-01   7.6562064968611632e-01   7.7960224783069465e-01   6.9669205494102093e-01   7.9270734251189123e-01   7.7351042742953091e-01   7.8942759998045953e-01   7.7196022519339658e-01   7.5663530973060911e-01   7.7555488901621128e-01   7.4543673982595871e-01   7.4264189515612855e-01   7.9015505546907217e-01   7.9134764512116951e-01   7.9873341334415204e-01   7.7616531485640927e-01   7.6412455119854528e-01   7.4137320201803247e-01   7.4959059594258692e-01   7.6857733763894898e-01   7.1540161854255480e-01   8.2331045559196325e-01   7.6860120175415225e-01   7.7350386352725731e-01   7.9469724618617310e-01   7.9722153908871141e-01   8.4018477369590450e-01   7.6684907770600264e-01   8.4670438253292957e-01   7.6518915820366351e-01   7.7724964623757331e-01   7.6819779572854319e-01   7.6867809274140719e-01   7.6339862325157848e-01   7.9269689156239198e-01   7.8035461961488162e-01   7.7724502746180057e-01   7.6173793345742247e-01   7.6725355849514343e-01   7.9495341268180253e-01   7.8047454533892269e-01   7.6860957956265574e-01   7.7636181452101238e-01   7.6004434673901045e-01   7.7367113471923410e-01   7.9081767549205606e-01   7.7292181557826312e-01   7.9878245856047980e-01   8.3764804949488525e-01   8.5051753883051440e-01   8.3713512649539923e-01   7.6114894616986695e-01   7.9077777391741177e-01   8.3173784352530400e-01   7.7376785230101164e-01   8.0047810190706625e-01   7.6659075406752553e-01   7.6924013681321557e-01   7.9745164586129402e-01   7.6388580519768845e-01   7.7622501550936218e-01   7.6330639245439980e-01   7.8219323627738135e-01   7.6756775298253366e-01   7.6559806630269978e-01   7.8650937161810897e-01   7.5544396439182482e-01   7.7212678386880174e-01   7.4737785282012736e-01   7.8095140359276038e-01   7.7180965809325441e-01   7.8087061199281271e-01   7.8883595225489977e-01   7.6665676248493397e-01   7.9426986143615808e-01   7.7174515626439710e-01   8.6621016446840127e-01   7.8399311987491671e-01   7.9373374954409814e-01   7.7249869149628148e-01   7.7918565542599860e-01   7.7184119604932699e-01   7.8480531401734799e-01   7.6281394628757604e-01   7.8808405454186403e-01   7.6529803943768426e-01   8.0342192742869578e-01   7.8062606298881165e-01   7.7817325806588611e-01   7.8695566668502637e-01   8.1365188084374607e-01   7.7354746948034636e-01   7.9117324838655922e-01   7.6787163470216335e-01   7.5961949016167285e-01   7.6895638495943042e-01   7.6888633994215205e-01   8.2787185539383357e-01   7.8155080865261128e-01   7.5427090373485828e-01   7.6588869063812592e-01   7.6824282232625085e-01   8.1304239326575234e-01   7.9499367854662095e-01   7.2050083388656927e-01   6.9684104893018906e-01   7.4523542209150440e-01   7.1336859470160630e-01   7.1724708555676420e-01   7.6132464621748475e-01   7.7736123815813896e-01   7.4019435426777769e-01   7.7248159268371897e-01   7.7414574675509318e-01   7.6458652153387163e-01   6.9580784240283267e-01   7.3398118575597493e-01   8.1691314124419223e-01   7.1093283895184722e-01   7.3028383237779837e-01   8.0322208769264714e-01   7.7158983236290912e-01   8.3340450136640465e-01   8.0210133603937539e-01   7.8357392076844401e-01   7.9373757745476181e-01   7.9863478594871418e-01   7.6934060402259585e-01   6.7415732558291108e-01   7.7413707625140793e-01   7.5867328808854728e-01   7.5914154667072631e-01   7.6717890056817328e-01   8.1616009769148312e-01   7.6886264951111660e-01   7.6671348011128049e-01   7.7174853792154818e-01   6.9710959324432475e-01   7.2499458374320880e-01   6.8835200104419569e-01   7.3306842046040577e-01   7.1628610789268266e-01   7.3420904739308801e-01   7.7970522872462478e-01   7.4100103132081019e-01   7.1645865048162294e-01   7.0413582997269386e-01   6.5833227035363495e-01   7.4491283725184232e-01   6.9237875662379289e-01   6.7698748461490166e-01   7.7666406941941657e-01   7.8271338812743574e-01   7.7714705113498384e-01   6.8507583441530173e-01   7.0649529274205913e-01   7.8121364693884210e-01   7.5716725197531354e-01   7.5383133313267714e-01   7.6342119355540616e-01   7.5595157011720937e-01   8.2503249959977876e-01   7.8466634209234742e-01   7.1909756270875214e-01   7.2350148177148066e-01   7.2985113316290318e-01   7.4265459003573664e-01   7.1441090069789037e-01   7.5642105885961952e-01   7.7114341221118377e-01   7.5718207948055938e-01   7.6905204004014804e-01   7.7359513883406339e-01   7.8362698793682639e-01   7.7226943767816325e-01   7.6485921341491447e-01   7.7665708791413302e-01   7.6735552625707248e-01   7.6836600744773764e-01   6.7170965384190862e-01   7.2978764346715530e-01   6.9594623111540088e-01   7.5634122959872507e-01   7.7285719088806826e-01   7.9384094964229612e-01   8.1004592502727424e-01   7.6152086527733431e-01   7.7153095819269102e-01   7.9641003696762658e-01   7.6391591858279584e-01   7.6792053192234544e-01   7.7466433227339815e-01   7.7765324176222483e-01   7.7100672642773749e-01   7.8008751145115751e-01   7.8254731507890352e-01   7.6183138782314253e-01   7.6469028268338790e-01   7.9613534595619395e-01   7.8448429936257547e-01   7.7987517147357954e-01   7.8131081238319222e-01   7.8222091095189328e-01   8.1948032005753657e-01   7.6016226921790420e-01   7.6816039633902533e-01   7.7418097436995681e-01   7.7340779266699200e-01   7.7308530355155081e-01   7.7549791911113919e-01   7.7481887006227157e-01   7.8118115335932092e-01   8.2332331185142571e-01   8.0076567987577096e-01   7.7356307642715905e-01   7.8034006235393905e-01   7.5159536093472712e-01   8.2863123487647583e-01   7.8145494864940568e-01   7.9053308045670678e-01   8.2146862784049401e-01   7.6394578909837874e-01   7.6076933420970450e-01   8.4107736408296097e-01   8.3801885630128337e-01   7.8830354770849309e-01   8.1903528288540228e-01   7.8905582423507903e-01   7.7840915894418194e-01   7.5492607856098271e-01   7.7266069949233707e-01   8.0851292773051697e-01   8.0110998968068747e-01   7.9967721964928296e-01   8.2429292228270856e-01   8.8603600031782626e-01   7.9847918974186971e-01   7.9469846620995288e-01   8.0824800877057690e-01   8.2068415929380734e-01   8.5772717339106908e-01   8.8323403619438579e-01   8.4568461262655437e-01   8.4181315276528368e-01   8.6911254440638941e-01   7.8484492795499206e-01   7.6391911908697696e-01   7.6176698770032159e-01   7.5421605354513954e-01   7.7500153321976861e-01   7.6573524494831369e-01   7.5789089185948255e-01   7.8474019907642423e-01   7.3251486349141515e-01   7.7041402646364343e-01   7.6886026371920102e-01   7.7600238121813514e-01   7.7137143573191980e-01   8.0079098568681151e-01   7.7384904590594783e-01   7.8168945245102628e-01   7.5922754628295253e-01   8.0056144409225227e-01   8.2917402813455443e-01   7.6357288012261793e-01   7.6426616794352831e-01   7.6349739239808811e-01   7.0807891592207040e-01   7.3947019659660096e-01   8.0548036700490688e-01   7.7741535164570019e-01   7.7179948413729316e-01   7.5719870485577878e-01   7.6492941648732693e-01   7.6839150559373237e-01   7.5447935549359557e-01   7.2363840010687630e-01   8.0333033696024458e-01   7.6953068110149858e-01   7.8144079177844961e-01   8.5083171979192895e-01   8.6642267023024300e-01   7.7722443813788711e-01   7.7679514362781354e-01   7.8479854175000374e-01   8.0333631156658980e-01   7.8666224177831245e-01   7.7967896953794735e-01   7.7843236917939673e-01   8.0119032403728496e-01   7.7566221728515217e-01   7.7748024782208203e-01   8.3299884670082580e-01   8.0101714217981090e-01   7.8377605332225198e-01   8.0186949642971372e-01   7.9357808470820101e-01   7.9039074638719475e-01   7.3759108717282273e-01   7.3044304360303536e-01   7.3293157041432067e-01   7.8983340640734567e-01   8.1312990555763498e-01   8.0011301711117266e-01   7.6877496351836960e-01   7.8989829994763339e-01   8.0935277087616087e-01   8.3922457641933890e-01   7.8494180590555707e-01   7.9843316530256891e-01   7.8540892731453571e-01   7.2973161803169528e-01   7.7046479795593736e-01   7.9811265243303464e-01   7.0130191071463155e-01   7.0052460164807995e-01   7.6616956673687298e-01   7.8163967169170079e-01   7.8102671586166483e-01   7.1252710580543399e-01   7.2899344298893354e-01   7.2910026007882067e-01   7.5882234688863404e-01   7.7361461739590387e-01   7.2051291913898863e-01   7.4010544347616181e-01   7.7089731261563454e-01   7.6820006969320098e-01   7.4092546175618823e-01   7.4104051411695104e-01   8.3079593911745786e-01   7.9502726257047329e-01   7.5896464730222180e-01   8.1660620921664728e-01   7.2139322830639063e-01   7.5844547605310764e-01   7.7337270547484482e-01   7.6863793986590678e-01   7.2543095068495644e-01   7.1951034274662595e-01   6.9929585884818413e-01   7.7973381483072246e-01   7.7269359379822744e-01   7.4825803258500023e-01   7.5801311096254076e-01   7.4057267618297606e-01   7.9090302160335468e-01   7.7221193530096743e-01   7.7306991239350187e-01   7.7076339767020585e-01   7.7015604479131983e-01   7.9850993547518834e-01   7.7292178340753959e-01   7.8656806347404085e-01   7.8222881665558686e-01   7.7150150218972036e-01   7.7254663715948679e-01   8.0885764571274210e-01   7.7801607803147532e-01   7.5116938882537754e-01   7.5270557998593457e-01   7.7413261301621050e-01   7.6343171031969093e-01   8.1464378953282113e-01   7.8992418259524222e-01   8.3394895614195963e-01   8.1119310727048211e-01   8.0728338044848702e-01   8.4018723374020243e-01   7.7160955194765557e-01   7.6975062188144816e-01   8.1757356858788677e-01   7.8499614370209247e-01   6.7555933374738220e-01   6.4715638126401298e-01   7.7576577081567255e-01   8.0683888972684836e-01   8.0315543716429738e-01   7.2048270990246299e-01   7.0767436700173536e-01   6.8525948766215516e-01   8.0653915860640701e-01   7.7093392725256882e-01   7.8357194408921382e-01   7.6685061960735290e-01   7.7706269929616101e-01   7.5929964785609672e-01   7.7505686289844478e-01   7.8747756622080134e-01   7.8388495492424348e-01   7.5841919314847139e-01   7.6869089862645512e-01   7.7449708467687894e-01   7.7447184336717090e-01   7.0971773173641139e-01   6.8783622331831984e-01   6.4438426827044804e-01   6.4653358027391794e-01   7.4983233062906762e-01   7.5025541566143039e-01   8.3336618832863185e-01   7.9424112605297825e-01   7.3449564964488023e-01   6.9145178692003850e-01   7.6317303390619751e-01   7.5286654313535528e-01   7.4566025284313464e-01   7.4115708302076833e-01   7.6166138085167701e-01   8.0434295764740793e-01   6.7028938589702458e-01   7.8026113485937165e-01   7.5527342127697250e-01   7.5229690777828895e-01   7.5095062274609059e-01   7.5761607121617469e-01   7.5545595313992420e-01   7.4981617180943161e-01   7.4297841740705872e-01   7.5940118691815628e-01   7.1719909261211934e-01   7.3096477799948523e-01   6.7562973118663094e-01   8.0625321867757360e-01   7.6154297746518251e-01   7.6599102451513668e-01   7.6225994123810825e-01   7.7745950252004459e-01   7.9249699660686512e-01   7.8996088044030410e-01   7.9575148127727513e-01   6.4732793671032518e-01   7.8678777810887923e-01   7.5964787000327150e-01   7.4457977124352503e-01   7.8884084920140651e-01   7.7172820850718593e-01   8.0210219725657228e-01   8.0771066199345543e-01   7.6846586787869320e-01   7.5836129208913972e-01   7.6128086244459925e-01   7.6357069314937887e-01   7.6219447603445378e-01   7.6806402065967949e-01   7.6259480943915114e-01   8.0004603478246439e-01   7.9497021457413708e-01   7.7841683204027612e-01   7.8103174275870868e-01   7.6660362732082254e-01   7.5122723292275162e-01   7.8429875361227119e-01   7.6431898722361813e-01   7.7753228339127733e-01   7.7981022750522178e-01   7.7249109005308791e-01   7.4483832560155128e-01   7.1994011013738657e-01   7.3844409659837706e-01   7.7605133505641677e-01   7.7249304464802049e-01   7.8311973113769440e-01   7.7878296033402206e-01   6.8865843265944893e-01   6.9143025824458837e-01   6.5912722118338163e-01   8.3489241085414312e-01   7.8580998213182962e-01   8.3921022285335101e-01   7.4047700663865867e-01   7.2011034534196727e-01   7.7236884327273658e-01   7.7082400414821139e-01   8.0479268927344627e-01   7.9555206569430947e-01   7.8788475893230692e-01   7.7966752716382071e-01   7.4656149797021087e-01   7.4677436852705059e-01   7.5619215547056384e-01   7.1417405772172837e-01   7.8386765816825754e-01   7.7781682911254935e-01   7.7477010321318773e-01   7.7158065111643315e-01   7.6570307038660435e-01   7.6506436822473611e-01   7.7845578574135965e-01   7.7920341535685866e-01   7.7725216612890169e-01   7.8002843641455577e-01   7.6053997649025906e-01   6.7335696274299661e-01   7.2401846308898210e-01   7.3365211207981951e-01   6.9215634648079816e-01   7.8139753620500607e-01   8.1934934431537343e-01   8.3026013217263028e-01   8.1650275457828914e-01   7.8813240132074514e-01   7.6985855060662023e-01   7.7564988413682723e-01   7.6865931677528410e-01   7.5802508240660060e-01   7.5625150603231850e-01   7.6895267486239838e-01   7.6167555615187932e-01   7.5897173208925206e-01   6.8867543390686958e-01   6.4415320590734826e-01   7.7218323879634010e-01   7.7223483418051142e-01   7.5861476869381861e-01   7.7578934769067864e-01   7.1947905265747969e-01   7.2425343938823294e-01   7.6522005623459055e-01   7.6372302901597400e-01   7.8344554010811562e-01   7.9613198722962286e-01   7.7849616556628798e-01   8.0898627544308377e-01   8.2194712569783379e-01   7.8023986220400399e-01   7.8063771808745308e-01   7.9442101340307458e-01   7.2827149958101745e-01   7.1198662530009249e-01   8.3371608095444627e-01   8.3371632496737658e-01   8.3340040928448655e-01   8.6623745033597932e-01   8.6461539863776271e-01   8.8365714319985633e-01   8.3139086471439783e-01   8.3888161528887217e-01   8.1323522381724633e-01   8.5457263587070154e-01   7.9661571257907737e-01   8.2260473722293925e-01   8.3355683048835261e-01   8.2165348365093371e-01   8.1560885105885195e-01   8.3705122579870017e-01   8.3370902464754959e-01   8.4114310109943746e-01   7.3283823764780887e-01   7.1008375133043911e-01   7.5562459652701053e-01   7.6979939468001057e-01   7.8239877925427270e-01   7.5328978943618241e-01   8.0627371445588525e-01   7.9213490542226472e-01   7.0722594552408846e-01   6.8620728648922547e-01   8.3268718941372055e-01   8.3972893937803728e-01   8.0910743824097531e-01   7.8767052753630717e-01   7.8030190294488211e-01   7.6324206388966032e-01   7.7277432037535576e-01   7.9601164863432405e-01   6.7098079152774359e-01   6.9309030765556667e-01   6.8831456769408683e-01   6.9719032480964849e-01   6.5809876448204074e-01   6.4751224299523491e-01   6.7188468383599920e-01   7.0607941830985954e-01   7.0718652811214999e-01   6.8708280989508319e-01   7.1445030211160265e-01   6.8741090558293783e-01   6.6249511747485956e-01   6.8707304528918800e-01   7.0821652021543213e-01   6.8868553732706705e-01   8.2113551907361326e-01   8.5259589981979433e-01   8.3621128869059613e-01   8.5220855200691925e-01   8.7066750512666646e-01   8.4948348141233343e-01   9.1974203633621765e-01   9.1948506330941737e-01   8.8640452974138273e-01   8.6750698778737101e-01   7.6457573586535754e-01   7.1417238813442985e-01   8.0190545486588705e-01   8.2058388013905814e-01   7.8059406202743797e-01   7.9335099784392327e-01   7.4327798077632190e-01   8.0544828882027175e-01   8.1379689775171471e-01   7.7107990988729436e-01   8.1326809731873029e-01   7.7474708922584268e-01   7.6964725571108294e-01   7.9294746702461372e-01   7.8145159411575238e-01   7.9192007368416173e-01   7.8656419337066830e-01   8.2424010535921399e-01   8.0020040640143331e-01   6.6156492892534724e-01   6.9001624895664104e-01   7.2058480639288869e-01   6.9956420989568824e-01   6.8513442032677196e-01   7.1427857071234913e-01   7.7254337536952189e-01   7.6723380206972547e-01   8.0357060776938960e-01   7.9457202776289693e-01   7.8710574878158124e-01   7.8556459930480360e-01   7.4797693710933277e-01   8.0924445362136865e-01   7.4992351004146462e-01   7.1177705103256139e-01   6.9070148295989631e-01   7.9347309598056459e-01   7.1765927123605477e-01   7.4452255148045876e-01   6.4466965004472565e-01   6.7688545250716547e-01   7.5461525929779716e-01   6.4437159968098845e-01   6.7653889838869952e-01   7.7055734509959639e-01   7.7465351395141047e-01   7.9715806626633545e-01   8.1671345169736242e-01   8.0039784972046446e-01   7.8184155845931091e-01   7.7272137158996623e-01   7.7613334800322586e-01   7.7907322128088152e-01   6.9639171024620328e-01   8.1458739090329912e-01   7.9232306249086315e-01   7.8237229851417966e-01   7.6029542564994312e-01   7.1269872520141453e-01   7.4094881943807278e-01   7.9543480897863172e-01   7.5512452416737963e-01   7.7390201877329068e-01   7.1299366010244847e-01   7.5991564194234484e-01   8.1363993052258887e-01   8.0024875649497118e-01   7.8646644193926030e-01   7.7427671840152956e-01   7.6362343681731903e-01   8.1082233023022621e-01   8.0081501017594070e-01   8.3267184323263643e-01   7.4787549393190000e-01   7.3822308669970671e-01   8.3634495847417678e-01   8.0877584691772197e-01   7.6856643099479194e-01   7.7444911585826737e-01   7.5682056987861013e-01   7.8356956881076367e-01   7.8113145593755950e-01   7.6592471148921659e-01   7.8372153205652750e-01   8.3027469281802424e-01   7.1913575808475105e-01   7.1919402342726402e-01   7.7344482481244692e-01   7.6429205043480453e-01   7.9804835052243106e-01   7.8272306871688557e-01   7.7662966492249885e-01   7.6470002844991192e-01   7.5709170237512513e-01   8.1815084011244976e-01   7.8749308214971314e-01   8.3228227430144452e-01   8.1145738696745795e-01   8.2078224833050328e-01   8.1695601929514328e-01   7.1700207801477589e-01   7.5109950755203647e-01   6.6505431500647894e-01   6.8734008771717359e-01   7.7307126243600732e-01   7.7447687497176720e-01   8.1135538791096473e-01   7.6878477651861887e-01   7.8268550271727400e-01   6.6324533129746632e-01   7.0325615248031126e-01   7.7485732286209030e-01   8.0852632292116244e-01   7.9341004587505004e-01   8.2780622994361219e-01   7.3153768547020648e-01   7.1285692464409756e-01   7.5293680148183884e-01   7.6220630645028831e-01   8.3184699477109658e-01   7.9473073768055835e-01   7.4937987119109284e-01   7.5456671132813768e-01   7.4969184491922725e-01   7.5106595174635893e-01   8.0055978237669945e-01   7.8428427817558433e-01   7.9317995392602059e-01   7.7582499232757385e-01   7.7059126796408040e-01   7.6885498624790904e-01   7.7104331836892248e-01   7.7592811509028936e-01   7.7292996089845634e-01   7.7037901123209473e-01   7.9095006945550717e-01   7.7257983167009692e-01   7.7656662116824360e-01   8.3571240315947093e-01   8.0122541526442503e-01   8.4629749628289441e-01   8.2838895578907190e-01   7.4469590272551589e-01   7.3004474188697699e-01   8.0033755750225832e-01   7.9264110464327853e-01   7.7412646387002548e-01   7.6983934458103109e-01   7.7649898723539246e-01   7.6801202268586122e-01   7.5691833997476932e-01   7.7968723716303789e-01   7.8447368246541394e-01   7.7288206695471273e-01   7.1928498994486934e-01   6.9432045132838582e-01   7.7158909160405409e-01   7.8681254208408435e-01   7.7838169959434000e-01   7.6663352287860409e-01   7.5914140058955593e-01   7.7029425009603569e-01   8.6952014616062667e-01   6.7722314960020269e-01   6.7654287622077924e-01   7.2978730553596693e-01   7.9713901351984195e-01   7.7102471071601630e-01   7.7884987752857537e-01   7.6344634556302970e-01   7.9069561966697688e-01   7.8230453963875524e-01   8.1278982593289084e-01   7.6037881322360945e-01   7.6968207631048247e-01   7.5885836314112176e-01   7.5777974339504872e-01   8.5277432383837648e-01   7.9387517987562550e-01   7.3727288867807372e-01   7.8440512037979837e-01   7.7783514279243282e-01   7.5822693494470650e-01   7.5464612684233501e-01   7.7062127869613950e-01   7.7964643930109156e-01   7.9003998943357434e-01   7.7849867914705284e-01   7.5501774886911699e-01   7.3296278780724899e-01   8.38841711377644