<?xml version="1.0"?>
<VTKFile type="UnstructuredGrid"  version="0.1"  >
<UnstructuredGrid>
<Piece  NumberOfPoints="1109" NumberOfCells="1972">
<Points>
<DataArray  type="Float64"  NumberOfComponents="3"  format="ascii">2.657359443040735e-18 1 0  2.776296719234194e-18 2.013934848627094e-18 0  1 2.667882593835632e-18 0  1 1 0  0.7903283524590269 0.5328558986376871 0  0.7949901651270959 0.5000299080656109 0  0.7903517886347058 0.4670192172566976 0  0.7776744699074036 0.4367208384263876 0  0.7586054676695213 0.4104972893816258 0  0.7352069673443518 0.3880393249140319 0  0.7086041857466908 0.3654379151844843 0  0.6783847518247382 0.3373716757646127 0  0.6478121125025614 0.3061007624628038 0  0.6227796256008407 0.2776362270793393 0  0.6009767735491635 0.2525934907124937 0  0.5768817495074383 0.2312007482988797 0  0.5485200039105013 0.2149914731186339 0  0.5165494694706292 0.2063365274665213 0  0.4835557742829075 0.2062836885900514 0  0.4515742104304241 0.2150064454973873 0  0.4231248506726829 0.2311681437561592 0  0.3988991459489791 0.2526985322680849 0  0.3772925016624697 0.2775607857815615 0  0.3521879324006837 0.3060634425486211 0  0.3216028079102483 0.3372647693033304 0  0.2913092363207038 0.3653618018024469 0  0.2648445925819426 0.3881574772075421 0  0.2415196379121878 0.41049038921615 0  0.2223424073292797 0.4366710508607288 0  0.2096620247916253 0.4671434316485731 0  0.2050687013060954 0.4999008938481566 0  0.2095027648624647 0.5328728184644373 0  0.2222750971909606 0.5632218430772629 0  0.2413245033738078 0.5894779924100301 0  0.2646929095115549 0.6119364446478508 0  0.2914009749717197 0.6346753580040041 0  0.3211640975752065 0.6630179588010092 0  0.3517768289861123 0.6939453206317077 0  0.3773169474654394 0.7223963147968256 0  0.3989362474663696 0.7474316642704801 0  0.423128785871861 0.7688029555145439 0  0.4514867567724884 0.7849014888644217 0  0.483521643403285 0.7936703578164521 0  0.5165312150654663 0.79374034130849 0  0.5484988562613031 0.7850074495739907 0  0.5769376883326073 0.7688026376076325 0  0.6010694530094123 0.7473765353298965 0  0.6228766622299093 0.7226532266592899 0  0.6481297340816679 0.6942006869558881 0  0.6783514804598674 0.6630027028511684 0  0.7089078154920845 0.6347822527762145 0  0.7353950070121301 0.61193049786272 0  0.7587266986448795 0.5894212777598685 0  0.7776662164682866 0.5632870002409645 0  0.5 1 0  9.23674645708016e-18 0.5 0  1 0.5 0  0.5 1.462969550016473e-17 0  0.75 1 0  0.25 1 0  1.361248702682145e-17 0.75 0  8.94087691196989e-18 0.25 0  1 0.25 0  1 0.75 0  0.75 1.691215498008184e-18 0  0.25 7.18178092990273e-18 0  0.625 1 0  0.375 1 0  8.893224059756271e-18 0.625 0  8.301114039012506e-18 0.375 0  1 0.375 0  1 0.625 0  0.625 1.885853243472341e-17 0  0.375 8.104187166050503e-18 0  0.125 7.775001296463159e-18 0  0.875 2.94524042275897e-18 0  1 0.125 0  2.228102417682299e-18 0.875 0  0.125 1 0  0.875 1 0  1.729286213939957e-18 0.125 0  1 0.875 0  0.1986449445625685 0.1740790070020963 0  0.8012865284475232 0.8257159823121382 0  0.8014112508488551 0.1740123521319719 0  0.1784020048884997 0.8214906750234729 0  0.8871197117902048 0.229692588315016 0  0.1444229295832798 0.2614776639306894 0  0.8555089763361297 0.7387564401923478 0  0.1460583531118816 0.7077127358405122 0  0.2718173641357293 0.8544050370063778 0  0.09257161843109617 0.09263385476304714 0  1 0.0625 0  0.9375 6.609286845694624e-18 0  0.0625 1 0  4.969797755655575e-18 0.9375 0  0.9073127959211755 0.9074312863276449 0  0.6837041728593943 0.1368630759410667 0  0.3163844095725431 0.1369563453225414 0  0.7172112559877908 0.8562804806013973 0  1 0.6875 0  1 0.3125 0  0.1195509952345358 0.3338412306048719 0  1.223510805375412e-17 0.6875 0  0.1875 4.61287702320961e-18 0  0.8125 8.877150796621283e-18 0  0.8667475067738381 0.3138293684293532 0  0.3125000000000001 1 0  0.6875 0.9999999999999999 0  0.8973336508996421 0.1026501879502313 0  0.872089692536371 0.6733302214990774 0  1.157101270478627e-17 0.8125 0  0.09770450672461593 0.902272299849101 0  0.09308290494129487 0.809640676219593 0  0.7800518722973725 0.2677673686386923 0  0.3318273351002652 0.8729293468193716 0  0.6374489632473441 0.8752632334832748 0  0.8883177540649885 0.8215695112728438 0  0.1118379180502057 0.1781374003684629 0  0.8125 1 0  0.1128225038141446 0.6282827286015935 0  0.8827377008622705 0.3645641612394148 0  0.2639829921522293 0.7564010505448484 0  0.6338128771524298 0.1114527087975764 0  0.3125 1.059708112368013e-17 0  0.3715606807035323 0.1120866753152013 0  0.2863061849367512 0.1990412556372172 0  0.7607547659519185 0.111113518188156 0  0.1885923824406854 0.9070361583936758 0  0.5625 1 0  0.4375 5.644517175452115e-18 0  0.4375 1 0  0.5625 1.036856091550487e-17 0  0.2228830307502162 0.1025004381089713 0  0.8807683056961479 0.6149169497308391 0  0.717024551366639 0.2119056816141575 0  0.7933248119407926 0.9059888090908151 0  1 0.4375 0  1.1387463544734e-17 0.4375 0  1 0.5625 0  8.243372962404761e-18 0.5625 0  1.953396908609968e-17 0.3125 0  1 0.8125 0  0.0625 2.646960901126081e-18 0  5.103892566723195e-18 0.0625 0  4.973475841030065e-18 0.1875 0  1 0.1875000000000001 0  1 0.9375 0  0.9375 1 0  0.6875 1.339424079644456e-17 0  0.1875 1 0  0.7302128567264585 0.7505106780224888 0  0.2326236267559293 0.2644395549042365 0  0.8323172613052504 0.08698734173500033 0  0.2248538576460371 0.7095276382637309 0  0.380207784115029 0.8868778754293207 0  0.8909907954938986 0.4301480762647202 0  0.1090741140121806 0.5699620533342863 0  0.1026721305260763 0.4218561904319393 0  0.5787038949460064 0.09979127518648728 0  0.5907698353363677 0.8855497943742993 0  0.4185672616755468 0.1030988348047485 0  0.09079165201434963 0.6849477761144375 0  0.9015345305307868 0.5261833866600331 0  0.09848193210488028 0.473730457977568 0  0.1901203742398885 0.3275843803756598 0  0.15975271856998 0.09542278809021534 0  0.9003971520912575 0.5733591788906072 0  0.6563630358645094 0.8167032623204684 0  0.6983437046169294 0.9118695553105465 0  0.09452953844465579 0.3726117704332285 0  0.9176500724100819 0.1611313050411271 0  0.4253389799789973 0.8988420280618845 0  0.5333679027331036 0.09899325187440106 0  0.4733428266488041 0.09266376464630555 0  0.4705706531857096 0.904700565020903 0  0.5265547733275547 0.9073332340318492 0  0.799272355943021 0.6740939305276354 0  0.7716350389992541 0.7136828008092424 0  0.06666345863372405 0.7556470045607954 0  0.6811178924019491 0.7739246655969282 0  0.3111875068392013 0.7738224241705466 0  0.06615734860330716 0.2440873370719849 0  0.9176259441778405 0.7307096030044556 0  0.8985004946508184 0.4766218815040502 0  0.1015345659962504 0.5234497797024885 0  0.8437622719081214 0.8934222326354122 0  0.7939016764824924 0.3165437371842925 0  0.1750877845614625 0.6391141166065403 0  0.756745748397332 0.9362896351056217 0  0.1520138929731348 0.7544626135240698 0  0.2284582766853737 0.8380773375422403 0  0.2436390543782092 0.9350844712853222 0  0.8237894707895717 0.7742301227967007 0  0.8498177650488787 0.1979500808147471 0  0.9255723948018706 0.2577604771004823 0  0.9242250531884082 0.7888251131732394 0  0.2599485566074742 0.07637376250536002 0  0.33835380134615 0.8029918646271712 0  0.7435622142770472 0.818272192744238 0  0.6985307828534829 0.06074367228118722 0  0.3014677753175919 0.06070909700774146 0  0.7376001536930884 0.07217624397328756 0  0.8854101321182357 0.05049539335079596 0  0.05035142648320771 0.1759008970210264 0  0.1740806194930478 0.2165773604479933 0  0.9270824290577778 0.3170696483745077 0  0.2072847368391674 0.6590777021054992 0  0.9548384341105867 0.1088564205267344 0  0.2919882777625183 0.2731748239568577 0  0.06395401653801383 0.8659060934324552 0  0.1088086741884722 0.9546268470060949 0  0.1748366988787802 0.047745818646046 0  0.8122874885640889 0.3687604702705732 0  0.7072977385131862 0.274076678751014 0  0.1128502646966242 0.04765784340782934 0  0.04417036465148037 0.1083860068390085 0  0.8834393034438379 0.949290768133646 0  0.9559428697691312 0.8917231731983667 0  0.138392339031485 0.1400448430068401 0  0.9519143794112741 0.9519269491786901 0  2.601775463422657e-18 0.03125 0  0.03125 2.327958521560622e-18 0  0.05161205525523167 0.9484907739532124 0  0.9448521601973486 0.05512257882409246 0  0.8302817019893697 0.6279152714260324 0  0.2017870795503531 0.7644090538275721 0  0.2093748161414445 0.2975010820685203 0  0.1169456479050134 0.2940431299472289 0  0.28125 1 0  0.286478469127651 0.930229688335961 0  0.1213805435123181 0.8410269542589189 0  0.6373776100927162 0.1737088129949638 0  0.6724148786207131 0.2081029954354174 0  0.3632019024048315 0.170379064181479 0  0.3324700653754075 0.2076957358822248 0  0.8539834869174791 0.4052313085733045 0  0.7574551925944643 0.2251378279277412 0  6.8497084535365e-18 0.28125 0  0.1919632092344768 0.3614330316460965 0  0.6298484367825082 0.9325994977065633 0  0.2454538985262998 0.2214678959178459 0  0.8588738866033163 0.278869955139349 0  0.9442029624650011 0.704271713442805 0  0.9170244841678197 0.658154459801677 0  0.3877187832190382 0.8161152425841559 0  0.2710609339176267 0.1374425681751994 0  0.0510818569434918 0.05104909406843056 0  0.5546346477870129 0.8698755827026081 0  0.1447593630183635 0.9047120299998261 0  0.1694375813158778 0.4027487291066299 0  0.9446784920393546 0.1897463309651699 0  0.8550329104914915 0.1469632146219499 0  0.7138019740748032 0.1503846223887362 0  0.9443938179202135 0.8467456037882791 0  0.84375 6.251458660529663e-18 0  0.8050148097022829 0.05830522669895188 0  0.4990460368218925 0.8596431104122376 0  0.5000595853451475 0.1430967503967269 0  0.8718843384039409 0.8609859840212919 0  0.736223726568063 0.3173892383139103 0  0.09306614629590956 0.2201133725651433 0  0.84375 1 0  0.8396548299224558 0.9456588604490959 0  0.1490225366568236 0.590440249936948 0  0.07422096741486028 0.6095104761910107 0  0.4157378916219872 0.8410490798699126 0  0.59375 1 0  0.06420875553737673 0.2945572085358392 0  1 0.34375 0  0.9276768295159258 0.3795764748405858 0  0.265839897264323 0.3139669
[...]
<CellData  Scalars="dens"> 
<DataArray  type="Float64"  Name="dens"  format="ascii">7.4088153191342476e-01   6.2909695784103570e-01   6.0802748697810027e-01   6.2841910851359029e-01   6.6546606017966681e-01   5.5773709573724439e-01   6.5678998999771332e-01   6.6284503701791520e-01   6.4250252505195982e-01   5.8001848269441736e-01   6.6965972902682691e-01   7.2291980359048458e-01   6.2278068883394000e-01   6.5809817868512988e-01   6.8666602300313573e-01   6.5361893775689128e-01   6.9283050207108821e-01   5.8202385814320345e-01   5.6575201944985332e-01   7.3742705543212494e-01   6.7288148429138916e-01   6.5874429068476315e-01   6.4803155398384449e-01   6.0055105579240708e-01   6.8601996894802808e-01   6.4276105906363268e-01   7.2962974353891874e-01   6.4772935521304398e-01   6.0743258099735475e-01   6.5866485081354187e-01   6.6349437107464881e-01   5.7534355532883008e-01   6.4347226955846359e-01   6.7473231244658116e-01   6.1372585118584377e-01   6.6759136552996390e-01   6.0668660196127766e-01   6.2939560194680078e-01   7.1834946879984918e-01   6.3564352998575835e-01   6.5793447991680931e-01   6.9515067776768524e-01   5.9789719022869114e-01   6.0877696723043395e-01   6.4987112044952888e-01   6.2890637054288900e-01   6.3001591400248735e-01   6.2895383057579435e-01   6.5632476204292090e-01   6.4763529611608783e-01   6.7842059655395703e-01   6.4749837756273576e-01   6.2907744025205403e-01   6.6019460621031045e-01   6.5468437313596584e-01   6.6623267910823292e-01   6.7392954780156755e-01   6.0279668374683115e-01   6.4827397196337377e-01   7.2884674726822340e-01   6.8670494951615280e-01   6.2764361447235772e-01   6.5172399015230820e-01   6.3035528832997267e-01   6.9800330081354567e-01   6.1162971745469286e-01   7.3470397320554104e-01   8.3285168727753478e-01   6.5403937688763703e-01   8.0960274919888797e-01   6.5734849342610324e-01   6.6772819874210676e-01   7.3045781379007513e-01   6.4889152756898705e-01   7.0717323626911799e-01   6.6066723325199916e-01   7.2455523617323569e-01   6.6500441899185925e-01   6.5165180788063359e-01   6.3244378871487361e-01   5.9093484870081903e-01   6.6656639826747588e-01   6.2385720899452246e-01   6.7002636777628199e-01   6.9271728247421727e-01   6.0638154488957130e-01   6.2386932227798675e-01   6.6338237112113152e-01   6.5535759991123188e-01   6.3688694274101032e-01   7.3867588035409493e-01   6.1017101526323780e-01   6.5044859179722769e-01   6.4949009024936077e-01   6.1624451711171890e-01   6.6567434638425871e-01   7.8646860092019177e-01   6.8717348150194335e-01   6.9968649578435038e-01   6.0630263780598148e-01   6.6614800770084348e-01   6.6090423765318362e-01   6.2109766698349878e-01   6.2972660749623099e-01   6.7232189663466402e-01   6.8501062103013199e-01   7.2047450637908672e-01   6.1245933588145407e-01   6.1152704322862139e-01   6.7343584730123507e-01   6.6137317925907269e-01   8.0664951860532108e-01   7.1414987340120228e-01   5.9264911140803023e-01   5.9687475534687695e-01   6.2414361794961193e-01   6.7163215458778069e-01   6.2498750489979116e-01   5.8467136784699913e-01   5.6192118359365562e-01   6.2925989195854970e-01   5.8419349866574588e-01   5.9254310310002334e-01   6.1368495299899273e-01   6.4933094033185568e-01   6.1895932642121954e-01   6.4700047419639961e-01   6.4172466934646177e-01   5.9347896097246777e-01   5.5942052666535780e-01   6.2442981639738737e-01   7.7515828891584104e-01   5.7683718785920102e-01   5.9097284585330723e-01   6.6385637758065064e-01   6.7205130866645590e-01   6.8448961527039232e-01   6.5998043426428332e-01   6.5341523128804679e-01   6.4991986726191542e-01   6.2937619882064166e-01   6.7927690889676506e-01   5.1564418470042894e-01   6.4760956356003574e-01   6.0252473941218143e-01   5.9328569480749638e-01   6.1178756742359630e-01   6.7654345188561160e-01   5.8943466068857275e-01   6.6114921180471720e-01   6.9338248980765693e-01   5.4936082610820625e-01   5.8295187329476839e-01   5.5190599867932255e-01   6.0928402763491341e-01   5.9699338775915234e-01   6.1634287396252518e-01   6.9022382164397000e-01   6.2034599870953511e-01   5.8601047447296828e-01   5.6452053649299538e-01   5.0409307669638004e-01   6.2643584003463237e-01   5.4385572583313935e-01   5.3173413621470833e-01   6.7633621965321700e-01   7.2415072337527064e-01   6.0216732382257954e-01   5.3435460124021650e-01   5.6621157303518255e-01   7.0678961392885320e-01   6.2440944465087733e-01   6.0863760861200211e-01   6.3821606457340674e-01   6.3225748828957629e-01   6.8984579626977716e-01   6.2069803700267245e-01   5.9340824878823750e-01   6.0808218911901968e-01   6.1212870427566357e-01   6.3821032887389806e-01   5.8342910542833470e-01   6.2710693240664883e-01   6.3834348648398320e-01   5.8455672394851732e-01   6.1522952809823894e-01   6.3468124372737977e-01   6.5055043386993350e-01   6.9988579781192128e-01   6.5813332679579795e-01   6.9806232099941079e-01   6.2226990642643243e-01   6.4921864932211826e-01   5.2909784778220026e-01   6.1502399746726077e-01   5.6248563042764299e-01   6.6745824689920963e-01   5.9648499543107014e-01   6.2699319429777212e-01   7.9119791872539635e-01   6.1647999137729770e-01   6.6588248781578940e-01   6.6115108140665446e-01   6.3962020668257658e-01   6.5503183883843130e-01   6.6632443661777530e-01   6.4818595586847361e-01   6.3462502322151970e-01   6.1498215172487913e-01   6.2873829626314126e-01   6.1265989633477091e-01   5.8763426000947128e-01   6.5704819542926418e-01   6.4654609483540992e-01   6.4367798668380116e-01   6.4060481203917685e-01   7.0825890475424269e-01   8.1842810469566252e-01   6.4787964392831321e-01   6.1485071207987441e-01   6.7308923541949017e-01   6.7271812871810333e-01   6.4459618958043330e-01   6.5125608912760247e-01   6.5209127395518407e-01   6.2551862666204017e-01   6.8675261067685534e-01   6.6395648820890307e-01   6.2077009333918931e-01   6.0661128162941458e-01   6.1688177756554363e-01   8.7014455888214648e-01   7.0645553896959545e-01   6.1933702868027041e-01   6.6670062564029797e-01   6.1176247282442575e-01   6.2374379619114328e-01   6.9409042231630547e-01   7.0280159176315715e-01   6.3005031471531081e-01   6.8785629441191243e-01   7.5751768955694276e-01   7.0821535765082155e-01   5.9059341611114002e-01   6.4694606926480047e-01   6.5434297711501088e-01   6.3426240373480258e-01   6.4423026028958064e-01   6.8828789122289513e-01   7.8543017563864426e-01   6.3484885464546448e-01   6.2708557614738225e-01   6.4777896912918176e-01   6.7490041128620515e-01   7.4219081034261802e-01   7.8055183371899128e-01   7.0173357098113087e-01   6.9813377941913402e-01   7.4610303910778009e-01   7.3492590344915820e-01   6.1033617147483377e-01   5.8809295519958527e-01   5.9381250478065317e-01   6.4289728029007021e-01   6.7847046779488052e-01   6.4750996938033101e-01   7.0623115999693331e-01   5.6646599867689695e-01   6.4821445144718304e-01   6.0912553526414559e-01   6.0016101413486078e-01   7.0413866670885461e-01   7.8200246218216385e-01   6.8422175715576738e-01   7.2596277747387195e-01   6.1808161823310748e-01   7.8641928600596100e-01   8.2690893335491589e-01   6.6320656543439205e-01   5.9622338100630057e-01   5.9261893509408892e-01   5.4339202054382640e-01   5.8435098692995979e-01   7.7590427814388474e-01   6.8182914178774323e-01   6.1269968030571842e-01   6.1060829288294949e-01   6.4808061475980072e-01   6.3990488982839355e-01   6.2712109411547012e-01   5.7182169192322607e-01   7.8530489504926171e-01   6.4064807088206066e-01   6.4736742859396512e-01   7.1243082992838858e-01   7.3869735685530280e-01   6.8884205139969990e-01   6.0917070728737843e-01   6.1719096598306233e-01   7.6387760995748155e-01   6.4867911618691654e-01   6.4490496611770431e-01   6.0792328980102150e-01   6.3161460407454817e-01   6.7278747712283971e-01   6.6101780445296532e-01   7.0123503948007393e-01   6.4457329837986677e-01   6.4680270103401005e-01   6.6771656983313288e-01   6.4090912610666773e-01   6.5310758585694528e-01   6.2736799885458594e-01   6.2408471128193499e-01   6.2928709098566737e-01   6.2277975654594653e-01   6.5764618976045564e-01   7.9079035165281464e-01   6.2321929316268621e-01   6.5854523213975891e-01   6.7394681213246488e-01   7.1293581536975115e-01   6.4126704232558995e-01   6.6270797844039087e-01   7.0519774688042658e-01   5.8446764717705291e-01   6.7760818292965730e-01   7.3615797021667972e-01   5.5701670383073054e-01   5.5724560500638265e-01   6.3038457340044973e-01   6.8370256368270899e-01   6.9336551239853172e-01   5.4749706212232330e-01   5.8384362065256656e-01   5.8583254305450327e-01   6.0525145161126415e-01   6.2771989868907396e-01   5.6575467962578507e-01   5.9718895113285075e-01   6.5623807247322963e-01   6.6354471911375812e-01   6.3454760920028275e-01   6.1428966453726630e-01   8.1113971194070977e-01   7.3682631387093733e-01   6.2059728072503206e-01   8.4913683867071221e-01   5.6611055401063259e-01   6.1579216876537080e-01   7.2100486327942270e-01   6.6164123614971326e-01   5.8695178901824330e-01   5.9422665428714572e-01   5.5504634007230469e-01   7.0677374080644617e-01   6.7473446267094062e-01   6.1159597562813273e-01   6.4325805463290653e-01   5.9605314921464692e-01   7.3468175476679642e-01   6.4051350289375297e-01   6.2201955544426646e-01   6.8720443506782181e-01   6.8426712342119378e-01   7.4493823992067620e-01   6.8289938029311215e-01   7.2679593033449108e-01   7.3278415933107932e-01   5.9933072027615120e-01   6.4508286715587981e-01   6.7280462622379245e-01   6.2136095754853227e-01   5.7483774939722576e-01   5.8503010520115983e-01   6.7614095376425487e-01   6.5286760531109378e-01   6.5714513575758460e-01   7.7645126390790908e-01   8.5104621936302527e-01   6.6745799597109223e-01   6.7169143351385763e-01   7.1396944480701241e-01   6.0069024954580708e-01   6.0455855578927098e-01   8.4611485111704388e-01   7.6168515897561229e-01   5.3028969005090920e-01   4.9616375891102021e-01   6.9890126083106929e-01   7.8942737077812231e-01   7.5170889688423548e-01   5.7787918294437135e-01   5.5280646364821973e-01   5.3669026501791617e-01   6.7210296458162189e-01   6.0644336597342108e-01   6.4008280505257575e-01   6.1692492507013186e-01   6.4901564731506467e-01   6.0018299911395057e-01   6.2072865028909352e-01   6.1703173917561271e-01   6.2128221829403729e-01   6.2250438697113497e-01   6.5266475019092007e-01   6.9117345983271705e-01   6.6086084055557004e-01   5.7953080916449806e-01   5.4948740945732277e-01   4.9422489134303554e-01   4.9572878829913020e-01   6.1174523734611019e-01   6.1108393303750108e-01   8.7349653078640888e-01   7.7472819739117882e-01   5.9413134391117606e-01   5.2915075908020448e-01   6.1081241446010981e-01   5.8649569493595599e-01   6.2697679864077327e-01   6.0617315669820904e-01   6.6797171128361466e-01   7.4827851810654766e-01   5.1279456353638309e-01   6.0570487804105966e-01   5.7856201079521719e-01   6.4465512496059374e-01   6.5135331310927325e-01   6.3995942887342838e-01   5.9086512389839696e-01   6.1097199025524407e-01   6.0705921137727314e-01   6.4464837213867843e-01   5.6407194305331820e-01   5.9101298289872428e-01   5.1677298469898159e-01   7.6364043798108749e-01   5.9226458005271754e-01   6.2654378021068680e-01   6.5140932643453586e-01   6.7081846871588124e-01   6.5912410329528659e-01   6.4778030771906514e-01   7.3517578781851800e-01   4.9625369504968858e-01   7.0732054581522019e-01   6.3735422322537794e-01   5.9908463702956449e-01   7.3913735794870217e-01   6.8757038255271441e-01   6.6477878885359876e-01   6.6256007177558141e-01   6.2520167568466267e-01   6.0347564823510524e-01   6.1702105786227324e-01   5.9464135593454825e-01   5.8932712291492673e-01   6.0939534864931555e-01   5.9383021152854798e-01   6.5988986284363416e-01   6.6022045666585838e-01   6.1242659844138814e-01   6.1632176015994666e-01   6.1413716946416830e-01   5.9329314218465623e-01   6.6641789563151521e-01   6.3846873322154174e-01   6.8851581301489373e-01   7.0888374402094223e-01   6.7522376489883740e-01   5.9443676786811861e-01   5.6651521883193401e-01   6.0133290994135402e-01   6.6221324762366818e-01   6.2506476853222259e-01   6.3692234263373748e-01   6.4710664122904138e-01   5.2697565266391588e-01   5.4264615202650557e-01   5.0454256296393585e-01   8.0935646936877048e-01   7.1712231080207345e-01   8.5211399061681237e-01   5.9994357280298782e-01   5.6655928341370876e-01   6.3232860323827134e-01   6.3365018998826284e-01   6.6668206557448706e-01   6.5546861298407100e-01   6.1406691592703855e-01   6.2774929184062522e-01   6.1747538572669713e-01   6.2005073825750412e-01   6.6333640610675626e-01   5.8705497297463305e-01   7.5403781694876759e-01   6.6532068342916473e-01   6.1477876949034405e-01   6.5258830695981462e-01   6.5485934857506389e-01   6.7053682780151436e-01   6.8377337782443315e-01   7.2242202589340965e-01   6.9450269881172422e-01   6.9129331461663046e-01   6.4474513766978647e-01   5.1500494154006415e-01   5.7949632373181714e-01   5.9612210747753436e-01   5.5174414718736631e-01   7.4095978725043821e-01   8.5598631003287917e-01   6.9639300633902124e-01   6.8460554327424716e-01   6.4631891588070367e-01   6.1310289822551889e-01   6.4081482958787550e-01   6.4374910336777558e-01   5.9917792110943646e-01   5.9195380737517234e-01   6.2376101173701581e-01   6.3945887070830310e-01   6.1547639357457851e-01   5.5065072037012497e-01   4.9407866579900012e-01   6.3852806687992214e-01   6.5864038373462153e-01   6.2312962644270353e-01   6.4951061843709512e-01   5.7017248280825783e-01   5.7333188979460392e-01   5.9491048830816462e-01   5.8883916312293660e-01   7.3349512630835390e-01   7.4678269563300637e-01   6.3618958922695845e-01   6.6947945409291998e-01   6.8589876628503221e-01   6.3870257089387894e-01   6.4205928847431426e-01   6.5644634563358251e-01   5.6204827858641049e-01   5.4678114165780611e-01   7.1078683521171349e-01   6.9907595327382444e-01   6.8524852920448265e-01   7.4313672667021624e-01   7.3523414250260199e-01   7.8164179943357770e-01   6.9256304944553049e-01   7.1279766138997158e-01   6.7321196912671566e-01   7.3507679099885626e-01   6.5568226614192371e-01   6.8935438922458925e-01   6.9204346349950796e-01   6.8506779279701002e-01   6.7588444385045043e-01   6.9640267496911068e-01   6.9209358789720055e-01   7.1632686694653847e-01   5.6639645550258999e-01   5.4505027517974802e-01   6.1671727270517807e-01   6.2390352042266939e-01   6.4912749661682401e-01   6.0238341282354990e-01   6.6008603774819907e-01   6.3895855551259040e-01   5.8122409337847858e-01   5.4994266528352298e-01   7.0619730647439560e-01   7.1387531171765406e-01   6.6478201981917318e-01   6.5538629254910241e-01   6.4910046630423468e-01   6.2191426453900345e-01   6.4242669793257157e-01   6.5483454041000688e-01   5.2894693167499995e-01   5.5188498605862202e-01   5.5149165607963957e-01   5.6336430944733851e-01   5.0385594045603721e-01   4.9642809212494760e-01   5.2923479050124511e-01   5.7974057173654192e-01   5.8147427127643070e-01   5.5229266436618540e-01   5.8665464471148532e-01   5.4949405070789104e-01   5.0711153673439935e-01   5.4383461647736386e-01   5.6989922931816284e-01   5.4099323797224852e-01   6.6602619794547713e-01   7.1580671443903765e-01   7.0637152942685522e-01   7.3107479392505836e-01   7.5038155105084559e-01   7.1071148790766037e-01   8.3845618194188709e-01   8.3772057204241579e-01   7.8683707339687203e-01   7.4467052436826464e-01   6.0219421181927280e-01   5.4872568234070584e-01   6.6599962271723678e-01   6.8865671277486284e-01   6.4052863122942449e-01   6.4069399950230721e-01   5.7753252143424005e-01   6.5234249580502479e-01   6.6999944426331803e-01   6.7883209920071075e-01   7.7143645656574700e-01   6.5220621117755195e-01   6.3993043555858042e-01   6.2361779304545373e-01   6.2040704536677982e-01   6.3898407858849016e-01   6.4575937220651103e-01   6.7929726316981509e-01   6.3212204348764689e-01   5.0634224037477371e-01   5.4588069725797017e-01   5.9790290707128202e-01   5.5567583043419522e-01   5.3454040292665728e-01   5.7096760835112692e-01   6.8947665511533940e-01   6.8264581120243040e-01   6.4172788742224907e-01   6.2638772458770220e-01   6.1697516980743894e-01   6.1323715937349543e-01   6.3765060646063532e-01   7.5233688915902119e-01   6.2534959143730207e-01   5.6410753780382816e-01   5.5452943979396174e-01   7.3591761225221053e-01   5.9216780513097977e-01   6.5243298173615105e-01   4.9442184085497171e-01   5.3654009478250941e-01   6.6104574727472187e-01   4.9422414163010586e-01   5.3535381170692653e-01   6.8475989172159013e-01   7.0215557000550233e-01   7.7347417890538739e-01   8.4631771165094793e-01   7.8467616601202272e-01   6.5175344011329761e-01   6.4071636701798940e-01   6.9362266595081101e-01   6.8651839304153273e-01   5.4937595575323928e-01   7.7440072576654562e-01   7.2748218232949613e-01   7.1427363226406393e-01   6.7260371907490590e-01   5.9041930946145516e-01   6.1775306659279261e-01   7.3157908036306718e-01   6.5870256094623469e-01   6.8559103584110559e-01   5.9260284360750815e-01   6.7240285125040089e-01   7.6868746031179125e-01   6.5292456653959696e-01   6.3475941882340126e-01   6.8277351060648117e-01   6.7302792001079426e-01   7.6701468745766010e-01   7.8916973017357239e-01   8.7939182086004897e-01   6.1230453669840390e-01   5.9863505807605311e-01   8.3500842284709065e-01   7.6202341108091531e-01   5.9960668513649173e-01   6.0913090359847299e-01   6.1662798275092057e-01   7.1071228998421709e-01   7.4163498366346581e-01   6.8066258911396194e-01   7.1397606935434166e-01   7.9997144905000939e-01   5.6729842126324559e-01   5.7661145491096133e-01   6.8981166905194591e-01   6.3809633732178395e-01   7.8613540262836701e-01   6.6406531193088203e-01   6.5683279285874108e-01   6.1771102818048484e-01   6.0566126716258384e-01   6.8569358173405148e-01   6.5745421295887441e-01   6.9542672315205689e-01   6.7261461257734734e-01   6.9021743154070037e-01   6.8150751286271161e-01   5.9703871993802338e-01   6.5011850305051799e-01   5.1857804995056012e-01   5.4588474643998197e-01   6.6425367509806210e-01   6.8784977475836262e-01   8.4394340790373834e-01   6.6858421124953604e-01   6.9969946578597064e-01   5.0767920677113842e-01   5.6560359006889993e-01   6.8875052602422115e-01   7.6427330797225279e-01   7.2760265413801750e-01   8.0635386751984883e-01   6.0096643624693347e-01   5.7473534312752805e-01   5.7757711957925917e-01   5.9948691308528734e-01   6.8897643863151048e-01   6.3249298114780506e-01   6.4507155275351913e-01   6.6211865380080992e-01   6.5919139647847924e-01   6.5432067128420124e-01   6.6209295673602686e-01   6.5231498429782286e-01   7.5635955756961526e-01   7.3498137649245798e-01   6.2524178366224981e-01   6.2601320079222889e-01   6.7314244832980141e-01   7.0189676848772298e-01   6.2921818958726983e-01   6.5131609144295777e-01   7.5543273958230228e-01   6.4941454398140908e-01   6.5567337250810376e-01   8.5722364317006283e-01   7.9842821359882354e-01   7.1677050302430900e-01   6.8901860879137677e-01   6.1984727411280904e-01   6.0045966136832218e-01   6.6074904415604196e-01   6.5408613618898714e-01   6.4079525897280099e-01   6.2327731930357733e-01   6.7500469498776416e-01   6.4765787903317340e-01   6.2486024474447288e-01   6.8179105747809166e-01   7.0271561162880170e-01   6.8821568294775959e-01   5.8421022371438469e-01   5.4676572969248105e-01   6.2563248224663792e-01   6.4659939685673595e-01   6.8162784650433839e-01   6.7335634782878784e-01   5.7893252542489926e-01   5.9461436126038780e-01   7.5809334970151976e-01   5.3385649516309819e-01   5.3249503200808879e-01   6.2072302800924006e-01   7.3806767654419581e-01   6.3956899080605079e-01   6.5586292725884232e-01   6.6077578056357744e-01   7.2875976783055407e-01   6.8618613426716979e-01   7.7919524173288823e-01   6.3186419266481553e-01   6.5218129259868807e-01   5.8859031710973386e-01   6.0884973349947424e-01   7.3245361905115214e-01   7.4365190109744994e-01   6.1812353334336390e-01   7.3907817250333352e-01   7.0394236656935538e-01   6.3260394706969569e-01   6.0100202217857535e-01   6.1932629525722727e-01   6.4295719051813816e-01   6.7373268834927258e-01   6.4201832054575192e-01   6.5826939024593223e-01   6.2016769330673904e-01   8.67200439105307