<?xml version="1.0"?>
<VTKFile type="UnstructuredGrid"  version="0.1"  >
<UnstructuredGrid>
<Piece  NumberOfPoints="1109" NumberOfCells="1972">
<Points>
<DataArray  type="Float64"  NumberOfComponents="3"  format="ascii">8.857864810135782e-19 1 0  5.646351005833852e-19 5.98778945982661e-19 0  1 6.113897610873322e-19 0  1 1 0  0.8647846501412777 0.5438366779124614 0  0.86784097720819 0.4999422788543523 0  0.8648193088652367 0.4562084961619565 0  0.8561382911340457 0.412990362827686 0  0.8419659925344268 0.3706584485879433 0  0.8221767407752774 0.3292152046611694 0  0.7966502243099358 0.2891363514244099 0  0.7656609764516881 0.2517082327110071 0  0.7299715829095663 0.2181973978475858 0  0.6910256380319645 0.1898628122516116 0  0.6501602802449215 0.1672011688170479 0  0.6082918310406403 0.1502486995938633 0  0.5654057255443975 0.1387760815084777 0  0.5218768601399916 0.1330069935707631 0  0.4781260064544581 0.1329672354945337 0  0.4345649176236465 0.1387841211203044 0  0.3917070982465062 0.1502457784975755 0  0.3497838185325119 0.1672524519181351 0  0.3089760566743179 0.189853810014055 0  0.2700477127651379 0.2181763146107848 0  0.2343435842452711 0.2516991846888648 0  0.2033138170506694 0.2891915216201991 0  0.1778315266211834 0.3292329600779952 0  0.1580695035852328 0.3706830432425179 0  0.1438526040364156 0.4129982454800324 0  0.1351959988458256 0.4562074572068264 0  0.132190476344015 0.4999116549779024 0  0.1351115375348662 0.5437515722013911 0  0.1438323310620749 0.5870278831785055 0  0.1580102411337432 0.6293417322115799 0  0.1778038064763723 0.6708066043323844 0  0.2033305826299334 0.7108581843526418 0  0.2342633882860698 0.7483232980456958 0  0.2699650916345598 0.7818060834164087 0  0.3090114746312186 0.8101532620730798 0  0.3498142134589395 0.832798192210665 0  0.3916931471048561 0.8497555084791616 0  0.4345433610791999 0.8611612701226991 0  0.4781031097276534 0.8669939022345485 0  0.5218436843619055 0.8670343400101922 0  0.5654290644049033 0.8612145335900296 0  0.6083307706543007 0.8497359585746569 0  0.6502524090822308 0.8327724462015965 0  0.6909691985303177 0.8102232101997492 0  0.7300017317671482 0.7818675238841574 0  0.765637691065186 0.7483552594744631 0  0.7967184503426357 0.7108489259807201 0  0.8222149015448235 0.6707853237860265 0  0.8419947146141125 0.6293577423181097 0  0.8561562287795182 0.5869967328962756 0  0.5 1 0  1.685131987463416e-18 0.5 0  1 0.5 0  0.5 3.849919868464404e-18 0  0.75 1 0  0.25 1 0  2.201914595494072e-18 0.75 0  2.181187043069571e-18 0.25 0  1 0.25 0  1 0.75 0  0.75 1.280490868386771e-18 0  0.25 2.121889820198534e-18 0  0.625 1 0  0.375 1 0  2.779132518673834e-18 0.625 0  1.452694956827189e-18 0.375 0  1 0.375 0  1 0.625 0  0.625 3.611668482338085e-18 0  0.375 2.926512032184904e-18 0  0.125 9.718751620578949e-19 0  0.875 1.619882232517433e-18 0  1 0.125 0  6.975526221616909e-19 0.875 0  0.125 1 0  0.875 1 0  1.131022862393859e-18 0.125 0  1 0.875 0  0.1568399818908124 0.1334696996086995 0  0.8431644109246244 0.8664931764271926 0  0.8431760752368934 0.1334527346735654 0  0.1392020713712263 0.8607761281869222 0  0.9169249721156653 0.1977023417642635 0  0.1045938622323604 0.221229822308455 0  0.89540133561881 0.7788292843514212 0  0.1030600071725818 0.7468821248204516 0  0.2314682818170079 0.8953384394930618 0  0.07585386579207581 0.07585535425462023 0  1 0.0625 0  0.9375 1.181217645679402e-18 0  0.0625 1 0  8.977305501447203e-19 0.9375 0  0.9241227273781397 0.9241506319123234 0  0.7176029286425607 0.09426820334421536 0  0.282419980262857 0.09429143907981985 0  0.7565081170767389 0.8977485061081799 0  1 0.6875 0  1 0.3125 0  0.08057099550817354 0.307744799473189 0  1.529388506719266e-18 0.6875 0  0.1875 1.467733598293967e-18 0  0.8125 1.585205499396658e-18 0  0.9081212754695148 0.2807547937160407 0  0.3125 1 0  0.6875 1 0  0.9164044321044318 0.08359325459105432 0  0.9129574962811657 0.7030614400464674 0  6.617524741232505e-19 0.8125 0  0.07968897520395282 0.9203062492995125 0  0.07029064751901548 0.8357100045965736 0  0.837643512928124 0.2101577336039405 0  0.3032430295744487 0.9139639971527226 0  0.6602844380222889 0.9174946689659615 0  0.9145889511444067 0.8509348444620664 0  0.08543224360899523 0.1489792771553854 0  0.8125 1 0  0.07411885245564817 0.6469074404872382 0  0.9225599287867339 0.3436601233465661 0  0.2024129819033003 0.8180813581216957 0  0.6530697247719586 0.07342208294984949 0  0.3125 2.883662734539369e-18 0  0.3530129353994634 0.0736427470014103 0  0.2322454520715702 0.1437816954964244 0  0.7922267646344306 0.08116427314049804 0  0.1626367644508251 0.9297169536056298 0  0.5625 1 0  0.4375 3.527823234657572e-18 0  0.4375 1 0  0.5625 4.212227871923855e-18 0  0.1937711538362634 0.07559841159921504 0  0.9220967468125235 0.6326932472823341 0  0.774040823423337 0.1542488052525802 0  0.8201495295035931 0.9299372899217868 0  1 0.4375 0  1.808597151222459e-18 0.4375 0  1 0.5625 0  -2.054777476831945e-19 0.5625 0  1.865156673388109e-18 0.3125 0  1 0.8125 0  0.0625 8.284913771047693e-19 0  9.119047181033968e-19 0.0625 0  4.176942600865094e-19 0.1875 0  1 0.1875 0  1 0.9375 0  0.9375 1 0  0.6875 2.245263189407171e-18 0  0.1875 1 0  0.7937853732155939 0.8141003704484261 0  0.1728476274449222 0.2045948744547093 0  0.8560284912766317 0.06667548729788902 0  0.1633624122850501 0.77001351595936 0  0.362832462949316 0.9259950122518051 0  0.9296637407100206 0.4208293622007191 0  0.07038414868230403 0.579233596838133 0  0.06630990174928393 0.4120998485269537 0  0.5881070671497611 0.06444171931995446 0  0.6038362014487306 0.9258362174236152 0  0.4084524442460528 0.06662461641812539 0  0.06174636904614829 0.7058404660462805 0  0.9366584098820308 0.5292174934847508 0  0.0633298889851015 0.4707474432219278 0  0.1320366880782105 0.2788632389661552 0  0.1350020286816143 0.073704921466981 0  0.9357381751426266 0.5819769676953147 0  0.700069622449377 0.8750625841206309 0  0.7197252063380065 0.9395120860056367 0  0.06191336521448072 0.3578488269169989 0  0.936607605183691 0.1387600083727267 0  0.4163418834309854 0.9347006536364924 0  0.537312511674455 0.06368843020136412 0  0.4706144214115182 0.05959484093578491 0  0.4674054555514511 0.9387053366993326 0  0.529390768317289 0.9403926716465125 0  0.8598355250285872 0.726453041682636 0  0.8333643224293427 0.7746862030764157 0  0.04778590263649005 0.7745050226020767 0  0.7419342459865067 0.8395853557324 0  0.2501683666840931 0.8383682178655376 0  0.04737946100067179 0.2254299688089259 0  0.9418548580029519 0.7529898593973263 0  0.9347337793366745 0.4739152704632416 0  0.06529956848137633 0.5260911894765802 0  0.8702943627207388 0.9173080334020398 0  0.8545922760732695 0.2615571724465575 0  0.1172357881776554 0.6760385436478646 0  0.7747565989839974 0.9543387963388377 0  0.1117954595915101 0.7963766919672634 0  0.1854193738175648 0.8790380942886753 0  0.2253331629567473 0.9534921928911237 0  0.8676284296983117 0.8196927396981544 0  0.8855808322808862 0.1599060680484665 0  0.9470647116883755 0.2371791342803522 0  0.9440333693540913 0.8108133831307461 0  0.2389371545785925 0.05422977938553025 0  0.2891138449604989 0.8643201109176972 0  0.7925382282246199 0.8662773379812686 0  0.7126295814166684 0.04140788252404555 0  0.2873911066801647 0.04139745599946731 0  0.7572796066532655 0.05107300584862745 0  0.8984725061560017 0.04000805918199171 0  0.03798236008730208 0.1609886982842216 0  0.1315974786189791 0.1722947221459031 0  0.9507978240189003 0.3011564444416239 0  0.142946657901824 0.711094776746324 0  0.9640764524886065 0.09718762878630588 0  0.2214907279740531 0.2021512162272374 0  0.05007345723615823 0.8828278411979309 0  0.09718121367630865 0.9639003210843227 0  0.1607294881887869 0.03606835135985149 0  0.8746501451588948 0.3300094144138747 0  0.778017466853333 0.2026973469067622 0  0.100526198669332 0.03779017729502011 0  0.03512787452305411 0.09707753294499274 0  0.8965460647287167 0.9599188284674547 0  0.9649071421741456 0.9029191844062717 0  0.110033663686307 0.1114910756147503 0  0.9591360915327074 0.9591405237037121 0  7.433644181207592e-19 0.03125 0  0.03125 7.544310023576088e-19 0  0.04376300655891546 0.9562438837856638 0  0.9533635713504434 0.04663666134836142 0  0.8875045011913667 0.6605287125954101 0  0.151755306977966 0.8153723793957118 0  0.1503926088507601 0.240933186637076 0  0.08162948570100505 0.2635712699526453 0  0.28125 1 0  0.2689302930758152 0.9517330680905928 0  0.0944537420196771 0.8698716414814305 0  0.6734448955671741 0.1160686633539782 0  0.7269159853163746 0.1453919088669145 0  0.3281984175406535 0.113757261912895 0  0.2786945932251469 0.1445279476162626 0  0.9051345369149453 0.386247879221999 0  0.8129612125844621 0.1698769685302466 0  2.526893766085159e-18 0.28125 0  0.1290935530645658 0.3192768353856212 0  0.6399007468233545 0.9559286497687939 0  0.1900648355590087 0.1665086006876236 0  0.899340099366864 0.2400720615587805 0  0.9618492289783739 0.7174559829732218 0  0.9447734752665773 0.6741911382622843 0  0.3558107106138299 0.8791243350814418 0  0.2330050675720091 0.09858013052684415 0  0.04333407918918322 0.04331915455457347 0  0.5636603371580056 0.9161489020545156 0  0.1213339705669581 0.9255489829379103 0  0.1104246871281948 0.3785730255683392 0  0.9586409761220677 0.1734892185048237 0  0.8851552024771503 0.1167371288895006 0  0.7548312977927716 0.1068674566418331 0  0.9572254272809823 0.862536506539732 0  0.84375 1.530245906944607e-18 0  0.8220840214171153 0.04343481330067536 0  0.4988014135219294 0.9096815336564562 0  0.4999821103720855 0.0920925026521385 0  0.8984046012318968 0.8881862593418883 0  0.809713072844066 0.2470011871216619 0  0.06861689335615702 0.1933616141045939 0  0.84375 1 0  0.8552764456366539 0.9584451762454724 0  0.09669564859959184 0.6090925619252777 0  0.04823466562913412 0.6189426001457239 0  0.3966346389565881 0.8969533873223122 0  0.59375 1 0  0.04408015157540152 0.2790842025165849 0  1 0.34375 0  0.9528570773165436 0.3695068291289961 0  0.1924671421327224 0.2429802541618162 0  0.
[...]
<CellData  Scalars="dens"> 
<DataArray  type="Float64"  Name="dens"  format="ascii">8.5495323484557284e-01   8.7729198149267540e-01   8.2861151554729606e-01   8.5839169498650203e-01   8.5929390566311925e-01   8.0078706807594158e-01   8.5643048582290204e-01   8.4570851954192150e-01   8.3118874960349043e-01   8.3621875519185596e-01   8.5762826465287467e-01   8.5856811588034820e-01   8.2481822072181932e-01   8.7823179035730004e-01   8.4926297429400510e-01   8.4861334282258905e-01   8.6686018792741293e-01   8.6110716606399595e-01   8.0292997726825965e-01   8.5466606163665926e-01   8.4944147054640817e-01   8.7634018174654649e-01   8.6060289026303660e-01   8.5973495331116156e-01   8.4786348774506204e-01   8.2669972691289961e-01   8.5462140234962725e-01   8.7738808197284024e-01   8.6493628974081860e-01   8.8550387194327973e-01   8.6721037169186110e-01   8.1981146222491141e-01   8.3475142121687729e-01   8.4348094890597491e-01   8.3437226022229805e-01   9.0522910004530110e-01   8.6911584632018235e-01   8.7110502116878663e-01   9.1625993429169339e-01   8.8654949087864499e-01   8.8243271261145095e-01   9.1471230967579009e-01   8.6889359228158825e-01   8.6605464918579356e-01   8.6692682732612125e-01   8.6549591833748285e-01   8.6563232326559336e-01   8.6361760619594763e-01   8.7982081655364841e-01   8.7237836224709941e-01   8.6247328542432478e-01   8.5751048345075731e-01   8.6472356308219767e-01   8.8082800524782490e-01   8.6910758236367425e-01   8.5182964717579257e-01   8.5668371139997723e-01   8.6228247281624704e-01   8.6463810587705403e-01   9.1746150331498766e-01   9.1374337770551251e-01   8.8451167355957960e-01   8.6680647429591973e-01   8.9065140080267347e-01   9.1217900926545370e-01   8.6224380180753535e-01   8.6192007568712803e-01   8.6989953755977167e-01   8.6623083886671182e-01   8.6543914011809964e-01   8.4759464658705086e-01   8.4962974145517989e-01   8.6140924002578256e-01   8.5410028736271615e-01   8.5691599832306120e-01   8.4507455515547225e-01   8.5998026142924666e-01   8.5470123045833823e-01   8.5803983060694811e-01   8.7991723143926470e-01   8.5664599047509526e-01   8.5284696190540366e-01   8.3862725697765583e-01   8.5597741131905958e-01   8.6236300084687501e-01   8.7935462717714896e-01   8.8337827402686608e-01   8.4817240017954487e-01   8.8145588486794191e-01   8.6600311462539814e-01   9.2952278308187986e-01   8.8146870383411335e-01   8.8259770603580412e-01   8.6698154826811002e-01   8.7632736105861020e-01   8.5646494537745754e-01   8.5990163140549769e-01   8.4356190745854287e-01   8.5982958633218709e-01   8.6642171866058593e-01   8.8617460412001325e-01   8.6985763024839136e-01   8.7509420512446601e-01   8.8094672588609713e-01   8.9601115455554825e-01   8.4618511717240696e-01   8.5419306601832456e-01   8.6745852536957058e-01   8.5927319145665948e-01   8.4435734560181741e-01   8.5702598532845797e-01   8.6973765420275662e-01   8.6059476123829881e-01   8.5915320648726778e-01   8.6825291038958752e-01   8.6659670704649383e-01   8.9540106550701615e-01   8.8821484381047910e-01   8.2130287828674942e-01   8.0547455884426988e-01   8.3452285862019970e-01   8.1601566579248208e-01   8.1613200717272316e-01   8.6223319104099694e-01   8.6965853543713778e-01   8.3064082835497210e-01   8.6701014626186712e-01   8.6393065121068202e-01   8.6778246584682717e-01   8.0500184682722897e-01   8.2481617340894486e-01   8.6751682255274298e-01   8.1404021891678091e-01   8.3015690385004737e-01   8.8784571754215125e-01   8.5345515879210654e-01   9.1071786862319903e-01   8.8500671641077255e-01   8.7200452985579235e-01   8.8285009411029391e-01   8.9051069326885290e-01   8.4591378790364169e-01   7.9631073098546556e-01   8.6299472323131809e-01   8.6146903830101462e-01   8.6274452680123104e-01   8.6742084692722943e-01   8.9685373976134042e-01   8.7193383459721430e-01   8.6016264263816944e-01   8.5895648413016135e-01   8.0898705248375691e-01   8.2697161299232369e-01   7.9852917238895471e-01   8.2784998435927026e-01   8.1362853882578301e-01   8.2531874266373495e-01   8.5099019751492755e-01   8.3116428714184554e-01   8.1874882698265183e-01   8.1157489404132011e-01   7.8222723083205215e-01   8.3335178148983802e-01   8.0621796098165421e-01   7.9427285073285603e-01   8.6640414549327016e-01   8.6359694341576809e-01   8.7681709454256773e-01   8.0154642465614234e-01   8.1298176777038134e-01   8.6217771819492683e-01   8.5656841064176292e-01   8.5036452226564985e-01   8.5277672429745022e-01   8.4590498914703749e-01   9.0048428559538984e-01   8.8026111465044798e-01   8.1793548343382638e-01   8.1794432472293477e-01   8.2487862279735646e-01   8.3075446595459579e-01   8.1766162724745539e-01   8.5645918167234858e-01   8.6694766245513621e-01   8.6263287804769784e-01   8.6821105407285815e-01   8.6437446656823547e-01   8.7285992248677902e-01   8.5940658850094265e-01   8.5559488071710366e-01   8.6204363625949365e-01   8.6041321084482369e-01   8.5590241735702444e-01   7.8800760772147493e-01   8.2390444074068014e-01   8.0398388722178937e-01   8.3537908575976383e-01   8.7421308088499305e-01   8.8702220065534110e-01   8.6563812280352381e-01   8.5606574863992868e-01   8.6039027792541034e-01   8.8202259691848417e-01   8.6026227150142809e-01   8.5979845750875783e-01   8.6553020265045100e-01   8.6708343497033591e-01   8.6287234849813199e-01   8.7722024469421767e-01   8.7764896818050864e-01   8.6247535351996774e-01   8.6867303037403965e-01   8.8036261909522107e-01   8.7475136080868332e-01   8.7059675033116879e-01   8.7090936165501642e-01   8.5325975609652405e-01   8.6501889112523855e-01   8.4896306366871732e-01   8.6723818659500052e-01   8.6155794506151917e-01   8.6005086312118084e-01   8.6229233983107834e-01   8.6676716310057444e-01   8.6342690740418993e-01   8.7686327747191295e-01   8.9964811133644473e-01   8.8475123950242274e-01   8.7123141800781523e-01   8.7896657311583237e-01   8.4572037124224353e-01   8.7560423989775571e-01   8.6510109049089767e-01   8.8533641754362102e-01   9.0356113101072799e-01   8.6422306563855078e-01   8.6075745755275990e-01   9.1583650176043851e-01   9.1160413910128701e-01   8.8170516604736904e-01   8.9622571262812789e-01   8.6458700379161924e-01   8.5382422996388807e-01   8.5892574259691512e-01   8.6698376603108362e-01   8.9463385439285481e-01   8.9177641073098712e-01   8.8930311152419894e-01   9.0177523877165411e-01   9.3838865517598902e-01   8.8971165783052686e-01   8.8768680495705110e-01   8.9578556377615104e-01   9.0182054035756531e-01   9.2138788291962559e-01   9.3686770650716622e-01   9.1845384193638413e-01   9.1555828828988839e-01   9.3082839690328645e-01   8.5572830289261526e-01   8.6473783583545138e-01   8.6598804460586332e-01   8.5900443757528300e-01   8.6951297545126516e-01   8.5184375126161582e-01   8.4460041295046939e-01   8.6023878974912971e-01   8.4111125873544845e-01   8.5812869134794334e-01   8.6896127868458073e-01   8.7616226033321531e-01   8.5536032619544555e-01   8.6676161999837098e-01   8.6088592919204221e-01   8.6141299665580129e-01   8.5990137991742610e-01   8.7344398061436423e-01   8.6972567142737611e-01   8.4249516930565904e-01   8.6704118684852627e-01   8.6680663650540668e-01   8.2342495323927967e-01   8.4262045054648782e-01   8.6538395764191745e-01   8.5656527796794546e-01   8.7095532527757091e-01   8.5920619561979494e-01   8.5949652068558247e-01   8.6223462059497158e-01   8.4597495091890484e-01   8.3004825853412134e-01   8.6739437897682270e-01   8.6389442506758596e-01   8.7286363154796420e-01   9.2096128593816506e-01   9.2958536675318160e-01   8.4826829731919418e-01   8.7553626485741909e-01   8.8104953573210409e-01   8.5959676802536977e-01   8.7577071694469721e-01   8.7036654966939420e-01   8.7715507196655829e-01   8.9229269684006263e-01   8.6362137915367476e-01   8.6437479062342337e-01   9.0718387558039859e-01   8.9015654828577606e-01   8.7451879771073504e-01   8.8475059176506010e-01   8.8085193628685221e-01   8.7667615305839330e-01   8.2892771545372446e-01   8.2047111143283202e-01   8.2128493202613684e-01   8.8421695619262874e-01   8.9837665871285965e-01   8.7318207213395638e-01   8.6637933108735721e-01   8.7757496100972576e-01   8.8945637458544502e-01   9.0919249750234987e-01   8.7647678624520142e-01   8.8348513418213537e-01   8.5846536610262403e-01   8.3133981102476484e-01   8.4548949860492606e-01   8.5611894978989045e-01   8.1089359446965148e-01   8.1085018223688654e-01   8.5820452682554860e-01   8.6169220585146988e-01   8.5355798517081716e-01   8.2663049171387049e-01   8.3137710186398817e-01   8.3074174054763694e-01   8.5994369405495796e-01   8.7138180281917266e-01   8.2891186874304834e-01   8.3840782225011745e-01   8.6009927691722299e-01   8.5752586991796131e-01   8.2703056200314862e-01   8.3345945369439411e-01   8.7140342382313973e-01   8.5514996172497759e-01   8.5887640775811480e-01   8.7554421447421416e-01   8.2971727488064084e-01   8.5276056288701996e-01   8.5517075077727711e-01   8.5883095875745541e-01   8.2619815662870777e-01   8.1914564838553794e-01   8.0924613515232913e-01   8.5773830366119885e-01   8.5794061918430753e-01   8.4325159477729750e-01   8.4299315079898096e-01   8.3978690591726513e-01   8.6016480640108517e-01   8.6532744726918476e-01   8.7083362368804329e-01   8.4297240212856483e-01   8.4416646644882298e-01   8.5654033270816921e-01   8.4768951202359266e-01   8.5266477776897187e-01   8.5880574616661420e-01   8.7268110811606858e-01   8.6699472816427725e-01   8.9049812383070914e-01   8.7447269040455977e-01   8.5880821995306011e-01   8.5879706394560062e-01   8.6393019130892879e-01   8.4765955241453073e-01   8.9932344737025061e-01   8.5548716332433528e-01   8.7310160910707313e-01   8.9199972555406537e-01   8.8968691663147004e-01   9.0984054394726432e-01   8.7245760028656894e-01   8.7035194053309517e-01   8.7585642783676254e-01   8.5817001232568890e-01   7.9323022545715638e-01   7.7190205281182056e-01   8.4460204694919194e-01   8.6000087742548170e-01   8.6215786677690454e-01   8.2406022434076431e-01   8.1933884395427903e-01   8.0111267321109536e-01   8.8746773559717151e-01   8.7129067290631967e-01   8.7657458852054504e-01   8.6585419424187293e-01   8.6997289886366636e-01   8.6225114576474804e-01   8.7258357054048463e-01   8.8308896690286098e-01   8.7959934803635742e-01   8.5038280717001691e-01   8.5344093578464730e-01   8.6179376508440675e-01   8.6106110128712943e-01   8.1239491083172932e-01   7.9826719859065676e-01   7.6945968945326126e-01   7.7129095224500932e-01   8.4510578328793795e-01   8.4578395184441602e-01   8.7790569450496314e-01   8.5437147202679820e-01   8.3362372981669852e-01   8.1061797052554463e-01   8.6433467004173115e-01   8.5854383165502535e-01   8.3468929201553643e-01   8.3773342133595030e-01   8.3829551256614532e-01   8.5981169226988463e-01   7.9281195916012015e-01   8.7900102821706183e-01   8.6196259877891512e-01   8.3704171480351974e-01   8.3391538146087996e-01   8.4670939550012625e-01   8.5679674307025333e-01   8.4611581235971300e-01   8.3942765762621341e-01   8.4383478394740330e-01   8.2551148152364318e-01   8.3085341698158377e-01   7.9754979313435470e-01   8.6286173920026754e-01   8.6522355060717238e-01   8.6420773528303652e-01   8.5055595617236834e-01   8.6452437892030953e-01   8.7881522043980598e-01   8.7704177413545070e-01   8.5397638408499965e-01   7.7215589038285015e-01   8.5385814331744814e-01   8.4797663113347421e-01   8.4352861828163594e-01   8.5454081673790139e-01   8.4554431401411201e-01   8.8638874847357429e-01   8.8962112764245493e-01   8.6719049054633446e-01   8.6086845342498242e-01   8.6032148133151654e-01   8.6656980375864445e-01   8.6620523784974190e-01   8.6816585201542606e-01   8.6585991028546605e-01   8.8561423314682752e-01   8.8077026498997424e-01   8.7648212567810835e-01   8.7806967442429917e-01   8.6661850059121304e-01   8.5642109535088473e-01   8.7334858184711728e-01   8.6037686944519021e-01   8.5116218713784986e-01   8.5141233582015541e-01   8.5518513786628381e-01   8.4503794062715132e-01   8.2784300087310403e-01   8.3593851509650230e-01   8.6704014164618359e-01   8.6922637400991620e-01   8.7220678502126836e-01   8.6758935245934132e-01   8.0837873613665756e-01   8.0586317982538647e-01   7.8323209054852738e-01   8.7541310746311474e-01   8.5658854811006091e-01   8.7869879197500178e-01   8.3823945352243978e-01   8.2816836209772504e-01   8.6832980803645077e-01   8.6629657628162915e-01   8.8717674987092499e-01   8.8120120801601276e-01   8.8403633985421659e-01   8.7484049950805098e-01   8.3870201305673930e-01   8.3840628676561935e-01   8.3656770322422624e-01   8.1420347972576612e-01   8.6042187699120742e-01   8.6597250609783971e-01   8.6910519413091414e-01   8.6283271547434603e-01   8.5859233712222649e-01   8.5659493251461383e-01   8.6803114850084750e-01   8.5397942689998640e-01   8.5771364226020919e-01   8.5395087084126553e-01   8.4538149287844166e-01   7.9569245456006477e-01   8.2755492855325163e-01   8.3222845406281476e-01   8.0314339102817978e-01   8.6217681195890150e-01   8.7659798772512099e-01   9.0557870255314699e-01   8.9506238277898054e-01   8.7903779439928020e-01   8.6946508027871272e-01   8.6932332535997647e-01   8.6046258826181432e-01   8.5989709842549789e-01   8.5716895480616795e-01   8.6155605032707849e-01   8.5019960198801370e-01   8.5348632150541914e-01   7.9915743390664151e-01   7.6919204749832970e-01   8.6703772803796642e-01   8.6349471971568958e-01   8.5637503396810544e-01   8.7009840835732100e-01   8.2576413829517759e-01   8.2975879073966829e-01   8.6793734038471326e-01   8.6759309436271925e-01   8.6349624747825759e-01   8.6638791575320262e-01   8.6898078856603889e-01   8.9246554724468863e-01   8.9831710556400146e-01   8.6956831672591739e-01   8.6999997903344728e-01   8.8131450166536829e-01   8.3812725409486222e-01   8.2632746065793827e-01   9.0564392676470518e-01   9.0854577570376904e-01   9.1053113989932977e-01   9.2891570418489156e-01   9.2886930268345114e-01   9.3701985431467527e-01   9.0793148392060119e-01   9.0890291183963312e-01   8.9506271880854082e-01   9.1993393596101503e-01   8.8268242660096108e-01   8.9994859541691530e-01   9.0989815567703591e-01   8.9814263517758308e-01   8.9658792055147751e-01   9.1212426864503593e-01   9.1007919517590286e-01   9.1027526198053299e-01   8.4142543978198647e-01   8.2500823306015725e-01   8.4903353180724450e-01   8.6209940252945338e-01   8.7193114899432866e-01   8.5142192367269465e-01   8.8857904388122033e-01   8.7982228058742307e-01   8.1002763686227741e-01   7.9708195388140646e-01   9.0457769030173885e-01   9.0949355604106252e-01   8.9036782639652146e-01   8.7531158614042959e-01   8.6955236577674078e-01   8.5702396442337592e-01   8.6283527736973631e-01   8.8078579530241674e-01   7.8702539371875357e-01   8.0462738407948431e-01   7.9861889465155655e-01   8.0521209247426540e-01   7.8229512762190756e-01   7.7219161322427921e-01   7.8779442194716731e-01   8.0877024453299240e-01   8.0984167079280345e-01   7.9719114979972905e-01   8.1596852812998344e-01   7.9859764079614814e-01   7.8583148030339467e-01   8.0074241790164213e-01   8.1344681296434074e-01   8.0353663960322474e-01   9.0338398268419196e-01   9.2198342226731811e-01   9.0896554642589833e-01   9.1851258590750229e-01   9.3143736330439142e-01   9.2006172181787571e-01   9.5838306273262341e-01   9.5830505953924638e-01   9.3850268773281376e-01   9.2967949863933363e-01   8.6255633196889359e-01   8.2796380114275159e-01   8.8502534617388418e-01   8.9739074162074084e-01   8.6947783018198532e-01   8.8087086873394893e-01   8.4861106590902269e-01   8.9238966427129673e-01   8.9582513701327782e-01   8.4490686511838942e-01   8.6467057741223685e-01   8.6674068573291874e-01   8.6227526199021010e-01   8.8679658574290843e-01   8.7769554472006694e-01   8.7953729637104094e-01   8.7492519634093491e-01   9.0376944341232424e-01   8.9133321769167007e-01   7.8526461236541878e-01   8.0320140991500188e-01   8.1906548840832516e-01   8.1027040714134535e-01   8.0144015676350822e-01   8.2005301551943444e-01   8.4599847017534324e-01   8.4104591730074052e-01   8.9291434881736453e-01   8.8774142575145976e-01   8.8297980382424135e-01   8.8218706075280062e-01   8.3476881148539372e-01   8.6673254898145813e-01   8.3944668701451031e-01   8.1998733932624279e-01   8.0036919718093624e-01   8.5518615919512397e-01   8.1810180521160603e-01   8.2701624104305793e-01   7.6961759824926512e-01   7.9188285770481626e-01   8.3597327901819551e-01   7.6929213692451137e-01   7.9193756141658611e-01   8.4590861315150545e-01   8.4510691032620333e-01   8.6689405567148703e-01   8.7533141578894613e-01   8.7431553153285391e-01   8.7264826485228231e-01   8.6650503311829374e-01   8.5002496211561074e-01   8.5942019937391556e-01   8.0865890835473253e-01   8.6513948402799645e-01   8.5812207309460653e-01   8.5128011585203012e-01   8.3622016219100892e-01   8.1135761939563733e-01   8.3339774788244791e-01   8.6066463547831540e-01   8.3741297248770430e-01   8.4672151405600860e-01   8.1084210621235708e-01   8.3563551951346204e-01   8.6493732151152813e-01   8.8810136344594215e-01   8.7930321826374680e-01   8.4845978660070265e-01   8.3841681082966557e-01   8.6315467641841659e-01   8.6000512882191504e-01   8.7753108455751960e-01   8.4265922598359910e-01   8.3597655623973943e-01   8.7328259546297904e-01   8.6414213589779232e-01   8.7000047521692681e-01   8.7352438321015968e-01   8.5775271385712448e-01   8.6636758541820857e-01   8.6190149349126366e-01   8.5703332574940916e-01   8.5053339707260067e-01   8.7422142004523340e-01   8.2652347418294703e-01   8.2344090604065145e-01   8.5985567956915487e-01   8.6026413006105484e-01   8.7177591072829541e-01   8.7310656373439832e-01   8.6835501877093912e-01   8.6460273805888221e-01   8.5960955076060441e-01   8.9604597235286865e-01   8.7592177902201063e-01   9.0756909186602752e-01   8.9384657682272539e-01   8.9709127016507151e-01   8.9709472539602197e-01   8.1447244187806922e-01   8.3374920942153430e-01   7.8461095517920088e-01   8.0014145416157889e-01   8.6505340314999335e-01   8.6219749828364223e-01   8.7211232201880828e-01   8.5755089536670648e-01   8.6357227182912666e-01   7.8660267150726992e-01   8.1014091708072911e-01   8.4594794899388237e-01   8.6178919398831699e-01   8.5385924380695799e-01   8.7029491638692402e-01   8.2760125188337919e-01   8.1650778970689342e-01   8.5988249136584038e-01   8.6489798683248076e-01   9.0889814674778036e-01   8.8683337288021813e-01   8.3362395212549734e-01   8.3435477948186165e-01   8.2983605616642786e-01   8.3492428925343098e-01   8.8624825922759443e-01   8.7446798765261136e-01   8.6997872016980438e-01   8.5584574376174927e-01   8.6835072215975229e-01   8.6673371425150658e-01   8.5559708344542729e-01   8.5897813302515069e-01   8.6423562662149200e-01   8.5905479161569598e-01   8.6283541366686878e-01   8.6406383806659470e-01   8.6606275330537974e-01   8.7502357796191088e-01   8.5676952367817738e-01   9.1619302726459051e-01   9.0531284870551265e-01   8.3612533860301119e-01   8.2630082061404042e-01   8.8497610763832557e-01   8.7803659408602708e-01   8.6459138008893088e-01   8.6225312566959278e-01   8.6553734950411332e-01   8.6245688048938951e-01   8.5696520292985023e-01   8.6753395587017523e-01   8.7061217276650293e-01   8.6247288545149969e-01   8.2077195329010089e-01   8.0758177859758351e-01   8.6833379350614248e-01   8.7808349293667043e-01   8.6356743201710995e-01   8.5473449319883399e-01   8.6528066532411729e-01   8.7221895024263563e-01   9.2866742901360555e-01   7.9278528449926311e-01   7.9357305736563910e-01   8.2087382678061793e-01   8.5983242819024652e-01   8.6506656506614332e-01   8.6870419104604801e-01   8.4392113477460984e-01   8.5555568629742218e-01   8.5449774646572141e-01   8.6229900285241290e-01   8.5217023774072787e-01   8.5747616906461355e-01   8.6351004213447025e-01   8.5978954554434395e-01   9.1817073158572660e-01   8.5297220427963838e-01   8.2824409489787465e-01   8.5762132669129654e-01   8.6232148185969826e-01   8.5648217160533102e-01   8.5806809499758285e-01   8.6419202500032899e-01   8.6881246649647981e-01   8.7843659768567817e-01   8.7295519577908387e-01   8.3794997239898616e-01   8.2537032066690297e-01   8.76075492992366