<?xml version="1.0"?>
<VTKFile type="UnstructuredGrid"  version="0.1"  >
<UnstructuredGrid>
<Piece  NumberOfPoints="1109" NumberOfCells="1972">
<Points>
<DataArray  type="Float64"  NumberOfComponents="3"  format="ascii">0 1 0  0 0 0  1 0 0  1 1 0  0.8968458805257912 0.5501332934257217 0  0.9 0.5 0  0.8968458805257911 0.4498667065742781 0  0.8874332644514524 0.4005240451340579 0  0.8719105943553006 0.3527501789261288 0  0.8505226720175453 0.3072985303593135 0  0.823606797749979 0.2648858990830106 0  0.7915874509685645 0.2261811576285244 0  0.7549695958994758 0.1917947028896841 0  0.7143307179915988 0.162268829799194 0  0.6703117166260287 0.138069179013592 0  0.6236067977499788 0.1195773934819385 0  0.5749525258342897 0.1070850997085245 0  0.5251162078117251 0.1007893086286913 0  0.4748837921882747 0.1007893086286913 0  0.4250474741657101 0.1070850997085245 0  0.376393202250021 0.1195773934819386 0  0.3296882833739712 0.1380691790135921 0  0.2856692820084015 0.1622688297991939 0  0.2450304041005242 0.1917947028896843 0  0.2084125490314353 0.2261811576285246 0  0.1763932022500209 0.2648858990830109 0  0.1494773279824546 0.3072985303593139 0  0.1280894056446994 0.3527501789261288 0  0.1125667355485475 0.4005240451340581 0  0.1031541194742088 0.4498667065742783 0  0.09999999999999998 0.5 0  0.1031541194742089 0.5501332934257218 0  0.1125667355485476 0.5994759548659421 0  0.1280894056446995 0.6472498210738713 0  0.1494773279824546 0.6927014696406861 0  0.176393202250021 0.7351141009169893 0  0.2084125490314355 0.7738188423714756 0  0.2450304041005241 0.8082052971103157 0  0.2856692820084012 0.837731170200806 0  0.3296882833739709 0.8619308209864078 0  0.3763932022500212 0.8804226065180615 0  0.4250474741657101 0.8929149002914756 0  0.4748837921882746 0.8992106913713087 0  0.5251162078117254 0.8992106913713087 0  0.5749525258342899 0.8929149002914755 0  0.623606797749979 0.8804226065180614 0  0.6703117166260291 0.8619308209864078 0  0.7143307179915986 0.8377311702008061 0  0.754969595899476 0.8082052971103157 0  0.7915874509685646 0.7738188423714755 0  0.823606797749979 0.7351141009169893 0  0.8505226720175454 0.6927014696406861 0  0.8719105943553006 0.6472498210738712 0  0.8874332644514524 0.599475954865942 0  0.5 0 0  0.5 1 0  0 0.5 0  1 0.5 0  0.25 0 0  0.75 0 0  0.75 1 0  0.25 1 0  0 0.75 0  0 0.25 0  1 0.25 0  1 0.75 0  0.375 0 0  0.625 0 0  0.625 1 0  0.375 1 0  0 0.625 0  0 0.375 0  1 0.375 0  1 0.625 0  0.125 0 0  0.875 0 0  0 0.875 0  0.125 1 0  0.875 1 0  0 0.125 0  1 0.125 0  1 0.875 0  0.1443946775413214 0.1213187937376868 0  0.8556053224586788 0.8786812062623132 0  0.8556053224586785 0.1213187937376867 0  0.1275360334547992 0.8724639665452008 0  0.9261623581710797 0.1875 0  0.09234641934319709 0.2082689144241477 0  0.9076535806568029 0.7917310855758523 0  0.08970099689351971 0.7603836651344988 0  0.2182130526099624 0.9079579669686324 0  0.07086411995581518 0.07086411995581518 0  0.0625 1 0  0 0.9375 0  1 0.0625 0  0.9375 0 0  0.9291358800441849 0.9291358800441849 0  0.7304772975931939 0.08076335202639119 0  0.2695227024068061 0.08076335202639115 0  0.7697819974699807 0.9105968468121929 0  1 0.6875 0  1 0.3125 0  0.06784168511078095 0.2966417331842567 0  0 0.6875 0  0.1875 0 0  0.8125 0 0  0.9212459744619301 0.2681742056774029 0  0.3125 1 0  0.6875 1 0  0.922097136530977 0.07790286346902295 0  0.9261304603587264 0.7150772115644075 0  0 0.8125 0  0.07432186328509671 0.9256781367149033 0  0.06317182982585627 0.84375 0  0.8548473925302104 0.1928285354262928 0  0.2914274450692525 0.9272721924131209 0  0.6710199663399635 0.9319471281137308 0  0.9226595291420543 0.8597667107019437 0  0.0773404708579461 0.1402332892980563 0  0.8125 1 0  0.06054886616517211 0.65625 0  0.9362657027224049 0.3336129027547622 0  0.1841195715992005 0.8363784907223111 0  0.6625377124131507 0.06023416665880475 0  0.3125 0 0  0.34375 0.06016090820395464 0  0.2153846372786545 0.1270381302276244 0  0.8024953780019808 0.07187189600048093 0  0.1546395545758083 0.9367961467266345 0  0.5625 1 0  0.4375 0 0  0.4375 1 0  0.5625 0 0  0.1844766880788185 0.06724298999790632 0  0.9369725282473387 0.6419809811402504 0  0.791523351719164 0.1369023590147849 0  0.8285961364903059 0.9374018659319692 0  1 0.4375 0  0 0.4375 0  1 0.5625 0  0 0.5625 0  0 0.3125 0  1 0.8125 0  0.0625 0 0  0 0.0625 0  0 0.1875 0  1 0.1875 0  1 0.9375 0  0.9375 1 0  0.6875 0 0  0.1875 1 0  0.8126465958421825 0.8329348088176629 0  0.1550798535647612 0.1867680086445373 0  0.8631981559835366 0.06032295929500282 0  0.1449089435554358 0.7884432695884597 0  0.3538206140027237 0.9399564250283491 0  0.944997661525766 0.4151121561005554 0  0.05500233847423393 0.5848878438994446 0  0.0520912947951912 0.40625 0  0.59375 0.05063263303723638 0  0.6113142584645842 0.9411585052804305 0  0.402402637527157 0.05243074290023167 0  0.05237021982595785 0.7146869946988353 0  0.9514280734197595 0.53125 0  0.04857192658024048 0.46875 0  0.1138995451272664 0.2618291859344329 0  0.1276043399716366 0.06698080255494471 0  0.9496852823490703 0.5873315358652272 0  0.7164226875694513 0.8936714072472519 0  0.728445758907293 0.9483406189827143 0  0.05037626111865807 0.3500677784994627 0  0.9425695009311538 0.1320174568820216 0  0.4108317852857326 0.9488345682840208 0  0.5398628985995173 0.04893133705064829 0  0.46875 0.04573672429098317 0  0.4652931800096448 0.9529811055869081 0  0.53125 0.9542632757090168 0  0.8785971272885281 0.7441734326495726 0  0.8518416617605847 0.7931754903661554 0  0.04183404050302509 0.78125 0  0.7612395846848441 0.8595654412716175 0  0.2310588911243982 0.8579303197600836 0  0.04148050284378633 0.21875 0  0.9494864361787021 0.7612608042848362 0  0.9500000000000001 0.4721339993173143 0  0.04999999999999998 0.5278660006826856 0  0.8781553628189985 0.9246252444972441 0  0.8731991046476956 0.2435858407989878 0  0.09811738497342513 0.6912987895906199 0  0.78125 0.9600244726998853 0  0.09951704281279977 0.8094116423849811 0  0.1723930843372325 0.8914409560171174 0  0.21875 0.9592823984315264 0  0.8808053857873319 0.8333253975559158 0  0.8963977713581862 0.1485308906960134 0  0.9538351164349618 0.2296733193971382 0  0.9502525126806526 0.8180081280125184 0  0.2312490385075739 0.04727387874777968 0  0.2715914187620846 0.8835921407480765 0  0.8075381809024645 0.880775593205643 0  0.71875 0.03518728418751645 0  0.28125 0.03518728418751642 0  0.7646042202168328 0.04444036111707996 0  0.9023329991729737 0.03666350737326187 0  0.03401531498238862 0.15625 0  0.1188530488980251 0.1590855287670435 0  0.9585274478449393 0.2940602659505009 0  0.122777080947294 0.7293581095092172 0  0.9670375667902916 0.09375 0  0.2005134857209875 0.1810792546569654 0  0.04567406045797464 0.8878541658538743 0  0.09375 0.966869578205468 0  0.1562008719445321 0.03232788333739163 0  0.8953932105853648 0.3139420780646932 0  0.7990572522972532 0.1815363722387022 0  0.0968875242781685 0.03463409819727443 0  0.03223722036876893 0.09375 0  0.9004223587754672 0.9633108159792649 0  0.9677627796312311 0.90625 0  0.1015654613822437 0.1029847255361322 0  0.9612688796250578 0.9612688796250578 0  0 0.03125 0  0.03125 0 0  0.9558898336496962 0.04411016635030385 0  0.04144949962501476 0.9585505003749852 0  0.9068917513393455 0.6748714165270275 0  0.1368346895292699 0.830580202512584 0  0.1325215314767946 0.2232188145997174 0  0.07053058491102715 0.2523250971165124 0  0.28125 1 0  0.2618257196382527 0.9585732837283344 0  0.08628220552312613 0.8784418410901162 0  0.6885162251696433 0.09694521726220126 0  0.7451861497985837 0.1260293295250874 0  0.313422114933215 0.09491014745286984 0  0.2604190570795071 0.1249189143540631 0  0.9242490330121279 0.3761177923443456 0  0.8294827367589617 0.1534479284350518 0  0 0.28125 0  0.1085704015556412 0.3026527142683792 0  0.6454377779583714 0.9642341400769985 0  0.1735682150935896 0.1501527832362767 0  0.9118639212665761 0.2270478094042325 0  0.9675029085737417 0.7231519194735394 0  0.9540854621793986 0.6818714685662951 0  0.3411855214203015 0.9011195850022233 0  0.2203778463487443 0.08657146517086198 0  0.04103470738435357 0.04103470738435357 0  0.5692124642834736 0.9350661676969988 0  0.1143804055696223 0.9319617439078584 0  0.08871656954519293 0.3663659127109965 0  0.9630811790855398 0.168250321868886 0  0.8941478109554366 0.1077225817667272 0  0.7685953432959879 0.09339992494635127 0  0.9613334331586147 0.8673647296762501 0  0.84375 0 0  0.8276419188889859 0.03874003995670209 0  0.4987074584280061 0.9312004428379874 0  0.4999999999999999 0.07012294039149713 0  0.906353444207591 0.8962759602721756 0  0.8317000502825128 0.2255938539236174 0  0.060982293117454 0.1847248153131282 0  0.84375 1 0  0.8601163332513452 0.9625346208269469 0  0.07696867235812772 0.6190771663714262 0  0.03866375363197156 0.624370156890833 0  0.386395970129115 0.9182613855572013 0  0.59375 1 0  0.03763634871355165 0.2725691404761272 0  1 0.34375 0  0.9619513789393942 0.3638256452123659 0  0.1705891391383945 0.2215719862571997 0  0.2993345649440622 0.9643978827856838 0  0.2548390693531445 0.917543736811073 0  0.4376701674058487 0.06983678836603174 0  0.6249880952696493 0.07804203554412367 0  0.8891633930840495 0.7080603551933189 0  0 0.65625 0  0.8857454763750297 0.2783067670731572 0  1 0.65625 0  0 0.59375 0  0.9147359581367025 0.7498372322849914 0  0.34375 1 0  0.08128436453222096 0.3306040779845135 0  0.8370204413255111 0.08803482611562097 0  0.4399236117509409 0.9264634199869409 0  0.3763243110806382 0.08093997073896844 0  1 0.78125 0  0.3058827875685617 0.8943637152968825 0  0.891027260700638 0.1971556622156984 0  0.1814462944911871 0.9630031969500565 0  0.1812917788273262 0.1067749496803429 0  0.2291605611046911 0.1598957180171764 0  0.630525566101238 0.03837025329843378 0  0.03363261960646192 0.92260900189631 0  0.2960793559902691 0.1260912307633523 0  0.03663553287191564 0.8179172045954961 0  0.02996523389584273 0.8560987956667739 0  0.09880166525369549 0.8450583124835681 0  0.6923212173088138 0.150169004406393 0  0.502
[...]
<CellData  Scalars="detF"> 
<DataArray  type="Float64"  Name="detF"  format="ascii">1.5036204678450880e+00   1.5730058522394861e+00   1.5115493095496875e+00   1.4711328652452382e+00   1.7030674080885817e+00   1.4700562195471900e+00   1.4708200635405722e+00   1.3354830351867937e+00   1.4601884529790683e+00   1.6242556537269253e+00   1.4619059879626541e+00   1.3543602997189239e+00   1.5456238905028954e+00   1.4502925412127436e+00   1.4148650467869459e+00   1.4708226056908993e+00   1.4235885897017946e+00   1.6055669871785530e+00   1.6827801856805120e+00   1.3405245165434869e+00   1.4371753708853297e+00   1.4508331251176900e+00   1.4780148272996250e+00   1.5731156020311960e+00   1.4158956498970823e+00   1.5055725033870191e+00   1.5067112070682582e+00   1.3521953237912416e+00   1.5558079766520672e+00   1.4449186968287870e+00   1.4611789305149443e+00   1.5560514529446494e+00   1.6477542504504801e+00   1.5007215629230670e+00   1.4381878461980950e+00   1.4130314334338352e+00   1.5509816027575021e+00   1.5158270578119526e+00   1.4822364211034798e+00   1.4449497817362928e+00   1.3643044397050401e+00   1.5663156935889333e+00   1.3313102209262373e+00   1.5517538381148024e+00   1.4730414472367754e+00   1.5195065229622362e+00   1.5158765321599308e+00   1.5279118996095336e+00   1.4520780099636161e+00   1.4773864756618347e+00   1.4318065275883476e+00   1.4974492197509328e+00   1.5181545366261440e+00   1.4443124540139163e+00   1.4636410532083048e+00   1.4509122393307137e+00   1.4330121144133543e+00   1.5665276963288244e+00   1.4794943044307065e+00   1.4973583723069364e+00   1.4821906658815114e+00   1.4859749347288838e+00   1.3629243832807505e+00   1.3159801628704246e+00   1.3773818293818891e+00   1.5516196019549175e+00   1.3453370728725718e+00   1.2105696160940003e+00   1.4751380447206031e+00   1.2647610081424645e+00   1.4642649097650973e+00   1.4465600627178585e+00   1.3422221811041462e+00   1.4836324681466475e+00   1.3958673498541547e+00   1.4615406116540794e+00   1.3694149717586470e+00   1.4575125031522265e+00   1.4827822532198562e+00   1.4940670788643129e+00   1.5852521369576646e+00   1.4463504159938756e+00   1.5326175657889525e+00   1.4434616598073977e+00   1.4085685287233503e+00   1.5389049065576361e+00   1.5048505236915011e+00   1.4550603404024514e+00   1.4523907975811232e+00   1.4998446137589398e+00   1.2945051712145546e+00   1.5300616334824506e+00   1.4607339708575420e+00   1.4867945370656452e+00   1.5253240844131590e+00   1.4737181947924844e+00   1.2990451172396695e+00   1.4175877285618266e+00   1.3920709443095807e+00   1.5548423640004856e+00   1.4287873070404720e+00   1.4572532496987360e+00   1.5195910518584990e+00   1.4980563481336817e+00   1.4143511683154406e+00   1.4213187546148169e+00   1.3602039540318742e+00   1.5437382254507184e+00   1.5539390539856568e+00   1.4389356792493615e+00   1.4625434070820500e+00   1.2393550114190310e+00   1.3823113495671184e+00   1.5896141881172428e+00   1.5694271739399110e+00   1.5254374326770364e+00   1.4154651898475783e+00   1.4972389827510832e+00   1.6252023330069141e+00   1.6910320844996372e+00   1.5272199941549978e+00   1.6329116988497085e+00   1.6133851058274513e+00   1.5480722714767030e+00   1.4781115555715711e+00   1.5472844153426093e+00   1.4890657124963331e+00   1.4858973127847022e+00   1.5763403133299501e+00   1.6971624590159444e+00   1.5438732886094777e+00   1.2811426453791708e+00   1.6483958900990889e+00   1.6051758794529638e+00   1.4332318747977524e+00   1.4399704122039581e+00   1.3828795100075004e+00   1.4374599512442203e+00   1.4629195764724581e+00   1.4617364265420540e+00   1.4873766865878668e+00   1.4300340547207420e+00   1.8156859911250709e+00   1.4768685412123252e+00   1.5699858632656902e+00   1.5823617554288247e+00   1.5459189300800746e+00   1.4061150054872311e+00   1.5781590009442228e+00   1.4764614993639167e+00   1.4247295330800660e+00   1.7171535689615305e+00   1.6243596882345244e+00   1.7190312545527235e+00   1.5707614110688148e+00   1.6057935406302777e+00   1.5563506846915736e+00   1.4087727045007059e+00   1.5436682764767011e+00   1.6269747670549048e+00   1.6792071982558836e+00   1.8591486660272545e+00   1.5306126224769976e+00   1.7333930265758015e+00   1.7746725623635486e+00   1.4468865680734908e+00   1.3771292378789435e+00   1.5490759811761505e+00   1.7612436472766220e+00   1.6733486556746480e+00   1.3936975592238092e+00   1.5375601188309203e+00   1.5546102687897125e+00   1.4979053854189861e+00   1.5122139686821316e+00   1.3802583726496453e+00   1.5134491648765991e+00   1.6103085965693495e+00   1.5801160971254791e+00   1.5686445858057618e+00   1.5149158638857083e+00   1.6336429412089961e+00   1.5358354926884867e+00   1.5026466066570709e+00   1.5985957896286964e+00   1.5374689783007272e+00   1.4965741912122654e+00   1.4677794504000810e+00   1.4179563770330461e+00   1.4727568907416912e+00   1.4128087241095280e+00   1.5209458113247663e+00   1.4769847467665504e+00   1.7849998783720082e+00   1.5635331920446887e+00   1.6904224284310163e+00   1.4591720368256558e+00   1.5625228583072914e+00   1.4954521056982473e+00   1.2652349046719331e+00   1.5350322476745435e+00   1.4561607509866010e+00   1.4421255758561675e+00   1.5065675039273667e+00   1.4765839037425235e+00   1.4584093493479735e+00   1.4744070626002572e+00   1.4999204096354253e+00   1.5262530042923128e+00   1.5039992011662169e+00   1.5492385874356047e+00   1.5854183487463582e+00   1.4465947146489213e+00   1.4734849869132052e+00   1.4806707007468907e+00   1.4823291926009838e+00   1.3812248482011755e+00   1.2306433194737347e+00   1.4855363182980292e+00   1.5382999596683671e+00   1.4438076981730170e+00   1.4434914911276917e+00   1.4826209456257653e+00   1.4740416465440926e+00   1.4704613823063621e+00   1.5097394291951043e+00   1.3856311024754977e+00   1.4341610328074401e+00   1.5244408709553370e+00   1.5391300252771578e+00   1.5414445256814213e+00   1.1810556681368953e+00   1.3999278267167914e+00   1.5097843689445469e+00   1.4155244406376983e+00   1.5494057970056050e+00   1.5361468960176747e+00   1.3650806026782052e+00   1.3565394564180595e+00   1.4958744828385675e+00   1.3877275020329884e+00   1.3334522901444770e+00   1.3860758479994151e+00   1.5919075289867162e+00   1.4900126189533749e+00   1.4431028202276373e+00   1.4779974444491770e+00   1.4654133845141513e+00   1.3844744993021627e+00   1.2318084720502298e+00   1.4797147894334013e+00   1.4943582239905031e+00   1.4526577633923801e+00   1.4056009719940858e+00   1.2958739475387597e+00   1.2385409271586636e+00   1.3522439451202388e+00   1.3593300538249145e+00   1.2843599096758953e+00   1.3496201260645135e+00   1.5518015833471694e+00   1.5875529518344720e+00   1.5870655452822979e+00   1.4920743484902279e+00   1.4409745986622886e+00   1.4864380514447695e+00   1.3838564401266513e+00   1.6513137955890467e+00   1.4769476463945657e+00   1.5468227620431143e+00   1.5534085655495524e+00   1.4072645042085563e+00   1.2888059364213091e+00   1.4311576279547076e+00   1.3717345351398489e+00   1.5448512955678522e+00   1.3013497019473033e+00   1.2177942494244487e+00   1.4579326314275458e+00   1.5721020454784862e+00   1.5786393697932866e+00   1.7209263125480767e+00   1.6105151226134728e+00   1.2854101336183097e+00   1.4214610248972770e+00   1.5387761513515450e+00   1.5576081603539622e+00   1.4920778367642724e+00   1.4974462905489767e+00   1.5219357425871147e+00   1.6478017121163617e+00   1.2800278613789553e+00   1.4969764972114565e+00   1.4759820256852776e+00   1.3355686321219957e+00   1.2942494724309925e+00   1.4123886935570760e+00   1.5387055092873738e+00   1.5185945478908502e+00   1.2986298484335921e+00   1.4676489556409524e+00   1.4794090446113501e+00   1.5389966313492704e+00   1.4818085426594294e+00   1.4444048264852021e+00   1.4553965700266895e+00   1.3617845203092731e+00   1.4634763594225619e+00   1.4743547914864312e+00   1.4276743919088051e+00   1.4717722106193118e+00   1.4566127586844022e+00   1.5366459704162660e+00   1.5467604680495430e+00   1.5360137011312622e+00   1.5053164035769093e+00   1.4350248272067001e+00   1.2979197472092951e+00   1.5244371690072791e+00   1.4517044299496560e+00   1.4128712795651144e+00   1.3415072996358055e+00   1.4813450144743030e+00   1.4381116861233927e+00   1.3833954288097066e+00   1.6171435391028306e+00   1.4310749228359629e+00   1.3359108878571593e+00   1.6970957652669008e+00   1.6977185085361803e+00   1.5085770223404114e+00   1.4168745934608882e+00   1.4017232576723244e+00   1.7080189863626227e+00   1.6195982242891367e+00   1.6155084957119912e+00   1.5649712796065169e+00   1.5179706116588645e+00   1.6627328262477015e+00   1.5849573769375833e+00   1.4687506717824774e+00   1.4620562612791832e+00   1.5211489720145519e+00   1.5550246751301535e+00   1.2329572597398246e+00   1.3361602074156946e+00   1.5397691756611489e+00   1.2175892331349083e+00   1.6612794083996894e+00   1.5386076213302000e+00   1.3855161076577975e+00   1.4657233523658648e+00   1.6166297365150062e+00   1.6089260012109523e+00   1.7029265102761635e+00   1.3894077993064842e+00   1.4402123015746646e+00   1.5531944238084487e+00   1.4921907983536511e+00   1.5871368972965181e+00   1.3430626143366384e+00   1.4931548016619238e+00   1.5235839201279251e+00   1.4195336805635939e+00   1.4251884739421012e+00   1.3240640538824706e+00   1.4220527143329962e+00   1.3541415401673786e+00   1.3594845947496630e+00   1.5595792133823616e+00   1.4900757283964714e+00   1.4157808040218971e+00   1.5184547423852397e+00   1.6214373580302008e+00   1.6028299059896709e+00   1.4498321942455477e+00   1.4736052759061744e+00   1.4340105895676700e+00   1.2979363488717683e+00   1.1900750244131999e+00   1.4202110221105380e+00   1.4190383125862949e+00   1.3395870404120946e+00   1.5570173709510051e+00   1.5528610356193489e+00   1.2180458029272905e+00   1.3240018878159421e+00   1.7793502437195394e+00   1.8903057773101297e+00   1.3996571109278608e+00   1.2686625768998328e+00   1.3128673488987066e+00   1.6383215386843903e+00   1.7006107767905303e+00   1.7558714325262701e+00   1.4175892381452091e+00   1.5493029326815551e+00   1.4860981618797633e+00   1.5362789419597116e+00   1.4796593112401908e+00   1.5707924858159366e+00   1.5232288323762051e+00   1.5160666818333690e+00   1.5132526743014167e+00   1.5262386727537889e+00   1.4701317367163860e+00   1.4250950807709011e+00   1.4568926572155425e+00   1.6442843736905528e+00   1.7245422462716478e+00   1.8981439331340066e+00   1.8920480145817542e+00   1.5514620888106234e+00   1.5524083317317083e+00   1.1754067127020020e+00   1.2945420296021011e+00   1.5953824694690215e+00   1.7678923652628635e+00   1.5521516555719728e+00   1.6007020017621143e+00   1.5287357646433939e+00   1.5684941161572465e+00   1.4522801646746624e+00   1.3168077094797310e+00   1.8261789093388714e+00   1.5405534470923750e+00   1.6105388362185513e+00   1.4970465789849230e+00   1.4873887402113661e+00   1.4992485816925871e+00   1.5854071543887225e+00   1.5537737068950361e+00   1.5654774104780216e+00   1.4896420725893864e+00   1.6687985034452284e+00   1.6044836056384446e+00   1.8115771893443027e+00   1.2969061901161205e+00   1.5812316279500251e+00   1.5257198029509353e+00   1.4794406684892158e+00   1.4436006106441865e+00   1.4479176548846089e+00   1.4644278035084450e+00   1.3399328444705043e+00   1.8899447423003883e+00   1.3793383165463053e+00   1.5004316187095526e+00   1.5789943049312321e+00   1.3386014036802958e+00   1.4163105908566171e+00   1.4323532742222269e+00   1.4295262241199995e+00   1.5265884287478815e+00   1.5681078199991452e+00   1.5447048148046563e+00   1.5751140033973374e+00   1.5852227421160980e+00   1.5472743594551268e+00   1.5777546821574995e+00   1.4412839543385321e+00   1.4443914333758372e+00   1.5321977980846508e+00   1.5236561712420091e+00   1.5424497515970239e+00   1.5915892739153217e+00   1.4555161257426905e+00   1.5104147827514227e+00   1.4108158795108792e+00   1.3821138058732265e+00   1.4363141463013098e+00   1.5867358486922181e+00   1.6616145694678015e+00   1.5789209591384530e+00   1.4615194951063966e+00   1.5183589957610690e+00   1.4861525407571345e+00   1.4748347807456643e+00   1.7754474374451115e+00   1.7371727240286219e+00   1.8573603001090355e+00   1.2329488237490309e+00   1.3674025795080595e+00   1.1869819502362609e+00   1.5801209694126919e+00   1.6614222616428589e+00   1.5081086104899155e+00   1.5066131024820357e+00   1.4265584229486821e+00   1.4497720485358463e+00   1.5202876545566069e+00   1.5072545424754873e+00   1.5443710581791203e+00   1.5390566178930947e+00   1.4655087203814454e+00   1.6260570433661352e+00   1.3414385576378536e+00   1.4519127688189839e+00   1.5279513187674949e+00   1.4761050665110902e+00   1.4799771291282742e+00   1.4673878970638357e+00   1.4373039302013475e+00   1.3694792043610928e+00   1.4068734885197620e+00   1.4050741451998516e+00   1.4883349505468733e+00   1.8180082865309162e+00   1.6321432814797390e+00   1.5931452563309787e+00   1.7162863831328214e+00   1.3596260892252385e+00   1.2089084791928673e+00   1.3697079282826987e+00   1.3942276426074078e+00   1.4723068522471472e+00   1.5405438078668874e+00   1.4913016947729973e+00   1.4892926725697757e+00   1.5749150748647789e+00   1.5826677682176320e+00   1.5177493129920856e+00   1.4963890777910838e+00   1.5386964586372487e+00   1.7214631679808108e+00   1.8987416056739654e+00   1.4990230929879460e+00   1.4690967562823003e+00   1.5391630599274608e+00   1.4853338314372504e+00   1.6543465744350185e+00   1.6440730461343211e+00   1.5730812605404529e+00   1.5843471475242676e+00   1.3653846281516437e+00   1.3290204307282252e+00   1.4912471147813569e+00   1.4217856201394625e+00   1.3874666325135361e+00   1.4858222126839473e+00   1.4806706152298128e+00   1.4505676163290602e+00   1.6638820525278291e+00   1.7101005414051167e+00   1.3487328341825098e+00   1.3643604987758371e+00   1.3818194314840626e+00   1.2895593336376414e+00   1.2995262734275113e+00   1.2371219421878397e+00   1.3745416900997940e+00   1.3419059464653156e+00   1.4130322914582221e+00   1.3061401124976804e+00   1.4492096858150889e+00   1.3839850835962790e+00   1.3735276186950873e+00   1.3887816398991257e+00   1.4075503110669256e+00   1.3654518061483236e+00   1.3734286163690037e+00   1.3360862603789716e+00   1.6512185037830056e+00   1.7155903342634646e+00   1.5385913850987916e+00   1.5165366592546574e+00   1.4704459559864047e+00   1.5660752245734206e+00   1.4339792738344652e+00   1.4757674093080160e+00   1.6434299200120983e+00   1.7252635378894050e+00   1.3542528810343293e+00   1.3400026710682662e+00   1.4252838101574694e+00   1.4572171321278773e+00   1.4718649977117175e+00   1.5252257849212267e+00   1.4861970180078137e+00   1.4494966126479023e+00   1.7859526040987856e+00   1.7154148314171953e+00   1.7200021359971294e+00   1.6876332370209324e+00   1.8600653466953068e+00   1.8892639103742448e+00   1.7844156975154828e+00   1.6470253169995481e+00   1.6429251868571346e+00   1.7193521600584623e+00   1.6271284565109414e+00   1.7251667846657568e+00   1.8475409140037853e+00   1.7382149801071807e+00   1.6643566405839156e+00   1.7432443717212587e+00   1.4166661038951496e+00   1.3303654273162766e+00   1.3530389637862645e+00   1.3122385144070139e+00   1.2786408618214566e+00   1.3385045656365628e+00   1.1620342950465374e+00   1.1628635770619216e+00   1.2302028603411268e+00   1.2869704502605570e+00   1.5576095319755578e+00   1.7040108010420796e+00   1.4300523991668421e+00   1.3855616316970354e+00   1.4825094245684123e+00   1.4723198097805861e+00   1.6204917950706579e+00   1.4485278262062564e+00   1.4165909026168193e+00   1.4307202274141957e+00   1.2872618374372793e+00   1.4753080254849023e+00   1.4946961810766806e+00   1.5012284223309489e+00   1.5168354957875279e+00   1.4758071640262045e+00   1.4705974463979894e+00   1.3967268332505083e+00   1.4819125180676020e+00   1.8504524145947236e+00   1.7311432875917012e+00   1.6011666226127974e+00   1.7018064888341589e+00   1.7606790754347410e+00   1.6574919217977344e+00   1.4161631254165654e+00   1.4291086805179962e+00   1.4653954374673324e+00   1.4955736097576722e+00   1.5166866578803084e+00   1.5237730488901888e+00   1.5115120911454170e+00   1.3129980294375687e+00   1.5285283985124707e+00   1.6734719208696651e+00   1.7114930508527029e+00   1.3418894622565882e+00   1.6142690256216512e+00   1.4899705443118549e+00   1.8973234312133542e+00   1.7634179786721236e+00   1.4701489284071310e+00   1.8981267603641068e+00   1.7664857174367468e+00   1.4246764033170154e+00   1.3975220307516938e+00   1.3041141813421218e+00   1.2197192444769043e+00   1.3034516074669307e+00   1.4692497642520890e+00   1.4934862117205556e+00   1.4046300593319767e+00   1.4152768247141523e+00   1.7178290208174285e+00   1.2830774584819835e+00   1.3539302591157523e+00   1.3769768911136506e+00   1.4478635027647033e+00   1.6208218179288061e+00   1.5496642921391421e+00   1.3469772285642532e+00   1.4736055087807844e+00   1.4204121927188391e+00   1.6163693926404481e+00   1.4484039925704544e+00   1.2900687393416619e+00   1.4522259842885283e+00   1.4903755039509372e+00   1.4247957229299892e+00   1.4453523454007702e+00   1.2935921525476666e+00   1.2745841643183426e+00   1.1705744172110488e+00   1.5518041601759940e+00   1.5842047807392718e+00   1.2052514037079489e+00   1.2979970871196356e+00   1.5618229534495893e+00   1.5409045649027504e+00   1.5487424533354046e+00   1.3910349430847919e+00   1.3596533132170643e+00   1.4507476863151172e+00   1.3729278691663473e+00   1.2455851291192619e+00   1.6606934001375750e+00   1.6418573810641577e+00   1.4236456176361194e+00   1.5068659722338082e+00   1.3042658690177649e+00   1.4606059395728781e+00   1.4738619580912469e+00   1.5391797287545976e+00   1.5655098374239251e+00   1.3913040471369451e+00   1.4557271597533465e+00   1.3695960921091397e+00   1.4153480365514104e+00   1.3832092433682275e+00   1.3992207286089531e+00   1.6052312612773794e+00   1.4895216582336019e+00   1.8164324585554683e+00   1.7333977114737145e+00   1.4645551640224277e+00   1.4291752636979571e+00   1.2274469153220799e+00   1.4554509192397080e+00   1.3994769445093429e+00   1.8454343670788045e+00   1.6776622628324589e+00   1.4148664550202512e+00   1.2986586928347756e+00   1.3492339910701370e+00   1.2397763970498064e+00   1.5848550938038577e+00   1.6505609465444220e+00   1.6147159797145487e+00   1.5695737157387502e+00   1.3786486849656636e+00   1.4864798760934392e+00   1.4983172045086948e+00   1.4682125455781903e+00   1.4761031946712573e+00   1.4833542372845778e+00   1.4382565843946866e+00   1.4663293214197775e+00   1.3337440092234800e+00   1.3719935085064163e+00   1.5216768937006437e+00   1.5227686125157027e+00   1.4419691730578597e+00   1.4045658695033196e+00   1.5054729453392310e+00   1.4742058722500886e+00   1.3287777702319599e+00   1.4790231211041540e+00   1.4665058034469078e+00   1.1843383892077231e+00   1.2648413468460811e+00   1.3334707433948656e+00   1.3805924772172646e+00   1.5427822377708766e+00   1.5874555924795331e+00   1.4387939061480952e+00   1.4532737401003946e+00   1.4874377201965316e+00   1.5176440590253901e+00   1.4442081696433626e+00   1.4897677729636163e+00   1.5369114810980413e+00   1.4339472623687668e+00   1.4075077158928073e+00   1.4353062977813069e+00   1.6271652831742136e+00   1.7254437643794167e+00   1.5177932904395670e+00   1.4731712716137302e+00   1.4279234286223050e+00   1.4494845373342464e+00   1.6056805938156007e+00   1.5680038054976684e+00   1.2705673076679949e+00   1.7692268058784213e+00   1.7733179069205791e+00   1.5530645363113802e+00   1.3376089831006608e+00   1.4966196787240202e+00   1.4649743278322964e+00   1.4643054382074741e+00   1.3530727297869702e+00   1.4124447628003869e+00   1.2788578590553297e+00   1.5107104017914195e+00   1.4718754317281877e+00   1.5902496391698244e+00   1.5594287471002670e+00   1.3097464825043221e+00   1.3295488896228103e+00   1.5514480532129016e+00   1.3486483190899476e+00   1.4053622134541512e+00   1.5257035721262346e+00   1.5755647772120625e+00   1.5238810128381415e+00   1.4797046792082733e+00   1.4407354314672829e+00   1.4939614928955371e+00   1.4745422905292662e+00   1.5520255129334131e+00   1.17352906128867