<?xml version="1.0"?>
<VTKFile type="UnstructuredGrid"  version="0.1"  >
<UnstructuredGrid>
<Piece  NumberOfPoints="1109" NumberOfCells="1972">
<Points>
<DataArray  type="Float64"  NumberOfComponents="3"  format="ascii">0 1 0  0 0 0  1 0 0  1 1 0  0.8968458805257912 0.5501332934257217 0  0.9 0.5 0  0.8968458805257911 0.4498667065742781 0  0.8874332644514524 0.4005240451340579 0  0.8719105943553006 0.3527501789261288 0  0.8505226720175453 0.3072985303593135 0  0.823606797749979 0.2648858990830106 0  0.7915874509685645 0.2261811576285244 0  0.7549695958994758 0.1917947028896841 0  0.7143307179915988 0.162268829799194 0  0.6703117166260287 0.138069179013592 0  0.6236067977499788 0.1195773934819385 0  0.5749525258342897 0.1070850997085245 0  0.5251162078117251 0.1007893086286913 0  0.4748837921882747 0.1007893086286913 0  0.4250474741657101 0.1070850997085245 0  0.376393202250021 0.1195773934819386 0  0.3296882833739712 0.1380691790135921 0  0.2856692820084015 0.1622688297991939 0  0.2450304041005242 0.1917947028896843 0  0.2084125490314353 0.2261811576285246 0  0.1763932022500209 0.2648858990830109 0  0.1494773279824546 0.3072985303593139 0  0.1280894056446994 0.3527501789261288 0  0.1125667355485475 0.4005240451340581 0  0.1031541194742088 0.4498667065742783 0  0.09999999999999998 0.5 0  0.1031541194742089 0.5501332934257218 0  0.1125667355485476 0.5994759548659421 0  0.1280894056446995 0.6472498210738713 0  0.1494773279824546 0.6927014696406861 0  0.176393202250021 0.7351141009169893 0  0.2084125490314355 0.7738188423714756 0  0.2450304041005241 0.8082052971103157 0  0.2856692820084012 0.837731170200806 0  0.3296882833739709 0.8619308209864078 0  0.3763932022500212 0.8804226065180615 0  0.4250474741657101 0.8929149002914756 0  0.4748837921882746 0.8992106913713087 0  0.5251162078117254 0.8992106913713087 0  0.5749525258342899 0.8929149002914755 0  0.623606797749979 0.8804226065180614 0  0.6703117166260291 0.8619308209864078 0  0.7143307179915986 0.8377311702008061 0  0.754969595899476 0.8082052971103157 0  0.7915874509685646 0.7738188423714755 0  0.823606797749979 0.7351141009169893 0  0.8505226720175454 0.6927014696406861 0  0.8719105943553006 0.6472498210738712 0  0.8874332644514524 0.599475954865942 0  0.5 0 0  0.5 1 0  0 0.5 0  1 0.5 0  0.25 0 0  0.75 0 0  0.75 1 0  0.25 1 0  0 0.75 0  0 0.25 0  1 0.25 0  1 0.75 0  0.375 0 0  0.625 0 0  0.625 1 0  0.375 1 0  0 0.625 0  0 0.375 0  1 0.375 0  1 0.625 0  0.125 0 0  0.875 0 0  0 0.875 0  0.125 1 0  0.875 1 0  0 0.125 0  1 0.125 0  1 0.875 0  0.1443946775413214 0.1213187937376868 0  0.8556053224586788 0.8786812062623132 0  0.8556053224586785 0.1213187937376867 0  0.1275360334547992 0.8724639665452008 0  0.9261623581710797 0.1875 0  0.09234641934319709 0.2082689144241477 0  0.9076535806568029 0.7917310855758523 0  0.08970099689351971 0.7603836651344988 0  0.2182130526099624 0.9079579669686324 0  0.07086411995581518 0.07086411995581518 0  0.0625 1 0  0 0.9375 0  1 0.0625 0  0.9375 0 0  0.9291358800441849 0.9291358800441849 0  0.7304772975931939 0.08076335202639119 0  0.2695227024068061 0.08076335202639115 0  0.7697819974699807 0.9105968468121929 0  1 0.6875 0  1 0.3125 0  0.06784168511078095 0.2966417331842567 0  0 0.6875 0  0.1875 0 0  0.8125 0 0  0.9212459744619301 0.2681742056774029 0  0.3125 1 0  0.6875 1 0  0.922097136530977 0.07790286346902295 0  0.9261304603587264 0.7150772115644075 0  0 0.8125 0  0.07432186328509671 0.9256781367149033 0  0.06317182982585627 0.84375 0  0.8548473925302104 0.1928285354262928 0  0.2914274450692525 0.9272721924131209 0  0.6710199663399635 0.9319471281137308 0  0.9226595291420543 0.8597667107019437 0  0.0773404708579461 0.1402332892980563 0  0.8125 1 0  0.06054886616517211 0.65625 0  0.9362657027224049 0.3336129027547622 0  0.1841195715992005 0.8363784907223111 0  0.6625377124131507 0.06023416665880475 0  0.3125 0 0  0.34375 0.06016090820395464 0  0.2153846372786545 0.1270381302276244 0  0.8024953780019808 0.07187189600048093 0  0.1546395545758083 0.9367961467266345 0  0.5625 1 0  0.4375 0 0  0.4375 1 0  0.5625 0 0  0.1844766880788185 0.06724298999790632 0  0.9369725282473387 0.6419809811402504 0  0.791523351719164 0.1369023590147849 0  0.8285961364903059 0.9374018659319692 0  1 0.4375 0  0 0.4375 0  1 0.5625 0  0 0.5625 0  0 0.3125 0  1 0.8125 0  0.0625 0 0  0 0.0625 0  0 0.1875 0  1 0.1875 0  1 0.9375 0  0.9375 1 0  0.6875 0 0  0.1875 1 0  0.8126465958421825 0.8329348088176629 0  0.1550798535647612 0.1867680086445373 0  0.8631981559835366 0.06032295929500282 0  0.1449089435554358 0.7884432695884597 0  0.3538206140027237 0.9399564250283491 0  0.944997661525766 0.4151121561005554 0  0.05500233847423393 0.5848878438994446 0  0.0520912947951912 0.40625 0  0.59375 0.05063263303723638 0  0.6113142584645842 0.9411585052804305 0  0.402402637527157 0.05243074290023167 0  0.05237021982595785 0.7146869946988353 0  0.9514280734197595 0.53125 0  0.04857192658024048 0.46875 0  0.1138995451272664 0.2618291859344329 0  0.1276043399716366 0.06698080255494471 0  0.9496852823490703 0.5873315358652272 0  0.7164226875694513 0.8936714072472519 0  0.728445758907293 0.9483406189827143 0  0.05037626111865807 0.3500677784994627 0  0.9425695009311538 0.1320174568820216 0  0.4108317852857326 0.9488345682840208 0  0.5398628985995173 0.04893133705064829 0  0.46875 0.04573672429098317 0  0.4652931800096448 0.9529811055869081 0  0.53125 0.9542632757090168 0  0.8785971272885281 0.7441734326495726 0  0.8518416617605847 0.7931754903661554 0  0.04183404050302509 0.78125 0  0.7612395846848441 0.8595654412716175 0  0.2310588911243982 0.8579303197600836 0  0.04148050284378633 0.21875 0  0.9494864361787021 0.7612608042848362 0  0.9500000000000001 0.4721339993173143 0  0.04999999999999998 0.5278660006826856 0  0.8781553628189985 0.9246252444972441 0  0.8731991046476956 0.2435858407989878 0  0.09811738497342513 0.6912987895906199 0  0.78125 0.9600244726998853 0  0.09951704281279977 0.8094116423849811 0  0.1723930843372325 0.8914409560171174 0  0.21875 0.9592823984315264 0  0.8808053857873319 0.8333253975559158 0  0.8963977713581862 0.1485308906960134 0  0.9538351164349618 0.2296733193971382 0  0.9502525126806526 0.8180081280125184 0  0.2312490385075739 0.04727387874777968 0  0.2715914187620846 0.8835921407480765 0  0.8075381809024645 0.880775593205643 0  0.71875 0.03518728418751645 0  0.28125 0.03518728418751642 0  0.7646042202168328 0.04444036111707996 0  0.9023329991729737 0.03666350737326187 0  0.03401531498238862 0.15625 0  0.1188530488980251 0.1590855287670435 0  0.9585274478449393 0.2940602659505009 0  0.122777080947294 0.7293581095092172 0  0.9670375667902916 0.09375 0  0.2005134857209875 0.1810792546569654 0  0.04567406045797464 0.8878541658538743 0  0.09375 0.966869578205468 0  0.1562008719445321 0.03232788333739163 0  0.8953932105853648 0.3139420780646932 0  0.7990572522972532 0.1815363722387022 0  0.0968875242781685 0.03463409819727443 0  0.03223722036876893 0.09375 0  0.9004223587754672 0.9633108159792649 0  0.9677627796312311 0.90625 0  0.1015654613822437 0.1029847255361322 0  0.9612688796250578 0.9612688796250578 0  0 0.03125 0  0.03125 0 0  0.9558898336496962 0.04411016635030385 0  0.04144949962501476 0.9585505003749852 0  0.9068917513393455 0.6748714165270275 0  0.1368346895292699 0.830580202512584 0  0.1325215314767946 0.2232188145997174 0  0.07053058491102715 0.2523250971165124 0  0.28125 1 0  0.2618257196382527 0.9585732837283344 0  0.08628220552312613 0.8784418410901162 0  0.6885162251696433 0.09694521726220126 0  0.7451861497985837 0.1260293295250874 0  0.313422114933215 0.09491014745286984 0  0.2604190570795071 0.1249189143540631 0  0.9242490330121279 0.3761177923443456 0  0.8294827367589617 0.1534479284350518 0  0 0.28125 0  0.1085704015556412 0.3026527142683792 0  0.6454377779583714 0.9642341400769985 0  0.1735682150935896 0.1501527832362767 0  0.9118639212665761 0.2270478094042325 0  0.9675029085737417 0.7231519194735394 0  0.9540854621793986 0.6818714685662951 0  0.3411855214203015 0.9011195850022233 0  0.2203778463487443 0.08657146517086198 0  0.04103470738435357 0.04103470738435357 0  0.5692124642834736 0.9350661676969988 0  0.1143804055696223 0.9319617439078584 0  0.08871656954519293 0.3663659127109965 0  0.9630811790855398 0.168250321868886 0  0.8941478109554366 0.1077225817667272 0  0.7685953432959879 0.09339992494635127 0  0.9613334331586147 0.8673647296762501 0  0.84375 0 0  0.8276419188889859 0.03874003995670209 0  0.4987074584280061 0.9312004428379874 0  0.4999999999999999 0.07012294039149713 0  0.906353444207591 0.8962759602721756 0  0.8317000502825128 0.2255938539236174 0  0.060982293117454 0.1847248153131282 0  0.84375 1 0  0.8601163332513452 0.9625346208269469 0  0.07696867235812772 0.6190771663714262 0  0.03866375363197156 0.624370156890833 0  0.386395970129115 0.9182613855572013 0  0.59375 1 0  0.03763634871355165 0.2725691404761272 0  1 0.34375 0  0.9619513789393942 0.3638256452123659 0  0.1705891391383945 0.2215719862571997 0  0.2993345649440622 0.9643978827856838 0  0.2548390693531445 0.917543736811073 0  0.4376701674058487 0.06983678836603174 0  0.6249880952696493 0.07804203554412367 0  0.8891633930840495 0.7080603551933189 0  0 0.65625 0  0.8857454763750297 0.2783067670731572 0  1 0.65625 0  0 0.59375 0  0.9147359581367025 0.7498372322849914 0  0.34375 1 0  0.08128436453222096 0.3306040779845135 0  0.8370204413255111 0.08803482611562097 0  0.4399236117509409 0.9264634199869409 0  0.3763243110806382 0.08093997073896844 0  1 0.78125 0  0.3058827875685617 0.8943637152968825 0  0.891027260700638 0.1971556622156984 0  0.1814462944911871 0.9630031969500565 0  0.1812917788273262 0.1067749496803429 0  0.2291605611046911 0.1598957180171764 0  0.630525566101238 0.03837025329843378 0  0.03363261960646192 0.92260900189631 0  0.2960793559902691 0.1260912307633523 0  0.03663553287191564 0.8179172045954961 0  0.02996523389584273 0.8560987956667739 0  0.09880166525369549 0.8450583124835681 0  0.6923212173088138 0.150169004406393 0  0.502
[...]
<CellData  Scalars="detF"> 
<DataArray  type="Float64"  Name="detF"  format="ascii">1.4002649591812109e+00   1.4823194096780965e+00   1.4178015592853606e+00   1.4078543193946413e+00   1.5904591540228534e+00   1.4000894585349211e+00   1.3809123151932143e+00   1.3086250362628760e+00   1.3953713352236408e+00   1.5064490360966216e+00   1.4025065848537781e+00   1.3159552623913695e+00   1.4671387316962829e+00   1.3663933228379650e+00   1.3617757892800548e+00   1.3983582766688563e+00   1.3726315939364642e+00   1.4743713779091847e+00   1.5758152499692888e+00   1.3122340499906524e+00   1.3746195130892012e+00   1.3686456445250046e+00   1.3977169463433410e+00   1.4591940018394063e+00   1.3618556959102328e+00   1.4372225102977607e+00   1.4402791646970388e+00   1.3204527589032313e+00   1.4432366576988045e+00   1.3570461783837009e+00   1.3904154950316725e+00   1.4647886215948007e+00   1.5369634151656932e+00   1.4303385665694266e+00   1.3800874285046918e+00   1.3184059701397648e+00   1.4355087251224867e+00   1.4169826311159750e+00   1.3773735089010761e+00   1.3573882264055304e+00   1.2813956180993222e+00   1.4435814864384509e+00   1.2612276428541933e+00   1.4402403533531047e+00   1.3910829460494580e+00   1.4240305300497698e+00   1.4215022686012486e+00   1.4347351705243814e+00   1.3658751159039422e+00   1.3913809630283072e+00   1.3732400218367207e+00   1.4226611295840761e+00   1.4240905349415647e+00   1.3599647012013878e+00   1.3836355585254050e+00   1.3874465561587974e+00   1.3705705059839093e+00   1.4523884911128910e+00   1.3983489834461043e+00   1.3877838776405707e+00   1.4035338817790617e+00   1.3741958918923087e+00   1.2833441295508468e+00   1.2509943647599064e+00   1.2899056136318947e+00   1.4452719098976716e+00   1.3181381486342370e+00   1.2135555875214064e+00   1.3985458279751437e+00   1.2770234127045610e+00   1.3939661978237403e+00   1.3833529110763698e+00   1.3062943453229738e+00   1.4095090258281819e+00   1.3589074874824250e+00   1.3963318908729538e+00   1.3411362165593290e+00   1.3941774380050207e+00   1.4097052868673039e+00   1.3912682268762360e+00   1.4629835099923585e+00   1.3804253149142074e+00   1.4466669441221673e+00   1.3814927913708659e+00   1.3582145224804305e+00   1.4157880198992872e+00   1.3930323200569334e+00   1.3900390005467689e+00   1.3644742233714735e+00   1.4100644085296856e+00   1.2279679556740664e+00   1.4086638423744080e+00   1.3690638619349098e+00   1.4062904517393873e+00   1.4123736599217178e+00   1.4126989976661786e+00   1.3065484095207966e+00   1.3666758140446962e+00   1.3437642086424186e+00   1.4411056624021761e+00   1.3440714495374224e+00   1.3821479017191776e+00   1.4115665852134585e+00   1.3925414058854364e+00   1.3287254658124541e+00   1.3681400505903505e+00   1.3209077017205058e+00   1.4337209625093394e+00   1.4477334365146362e+00   1.3795823926424822e+00   1.3954299680972693e+00   1.2307835508461040e+00   1.3472033512771635e+00   1.4691105436261558e+00   1.4461283499121673e+00   1.4261573585329927e+00   1.3296569739362889e+00   1.3828847232571266e+00   1.5202817689162713e+00   1.5798837593410382e+00   1.4475266253197308e+00   1.5330339595776183e+00   1.5188364252649982e+00   1.4436255129909887e+00   1.3952822055406082e+00   1.4614419184728704e+00   1.4066968360359782e+00   1.3988795217783638e+00   1.4505267348039859e+00   1.5840139948912975e+00   1.4676572870695597e+00   1.2615510434458974e+00   1.5424041219307572e+00   1.4996819148050402e+00   1.3469509928460082e+00   1.3792218616419749e+00   1.2957170308598427e+00   1.3485042873385251e+00   1.3799695913943175e+00   1.3695820416078808e+00   1.3748233771073404e+00   1.3752731499318689e+00   1.6668412727511306e+00   1.3949652936409225e+00   1.4560385512597667e+00   1.4596124803140744e+00   1.4357333599646400e+00   1.3223244159350882e+00   1.4458195134107694e+00   1.4089633047706549e+00   1.3802067275403138e+00   1.5914745302964444e+00   1.5144848600959246e+00   1.6030890885554978e+00   1.4812225894084934e+00   1.5163532489782185e+00   1.4722133256320662e+00   1.3553800557254081e+00   1.4584936908563064e+00   1.5267092618954021e+00   1.5652457525755874e+00   1.7080225003945844e+00   1.4482292875970644e+00   1.6049874304211951e+00   1.6440319842317361e+00   1.3852129377330573e+00   1.3477257213596492e+00   1.4241996213618682e+00   1.6271967929979476e+00   1.5593337693307989e+00   1.3533895408021615e+00   1.4449098949250059e+00   1.4506718521475630e+00   1.4145383731186369e+00   1.4283083313849125e+00   1.3015012919613667e+00   1.4012723567536789e+00   1.5153093093488448e+00   1.4961891323383063e+00   1.4842085266097780e+00   1.4449592950791914e+00   1.5322721157421237e+00   1.4459397163779506e+00   1.4137614307718351e+00   1.4684759598782819e+00   1.4296494946955993e+00   1.4038101250220705e+00   1.3823417576504526e+00   1.3777349545772186e+00   1.4055904017551679e+00   1.3689329120421512e+00   1.4209514778048093e+00   1.4000004971905988e+00   1.6552393519142548e+00   1.4818241064860138e+00   1.5805418887080169e+00   1.4038571162624818e+00   1.4347530604797283e+00   1.3835386042130278e+00   1.2600839049666841e+00   1.4334448388070427e+00   1.3910419434834940e+00   1.3576343806041440e+00   1.4235700109279517e+00   1.4046538809349309e+00   1.3909404390833906e+00   1.3908101698405169e+00   1.4087505370616131e+00   1.4116441167593792e+00   1.4002079398681238e+00   1.4433116882423085e+00   1.4538237517426498e+00   1.3587182577532828e+00   1.3841296061753281e+00   1.3917607821785092e+00   1.3898854253056359e+00   1.3399156625297810e+00   1.2333874680625121e+00   1.4128647804100498e+00   1.4307863061326616e+00   1.3827183647380987e+00   1.3826982816753379e+00   1.3986788446558833e+00   1.3945398565612332e+00   1.3919031764012322e+00   1.4039740340278690e+00   1.3055364117925816e+00   1.3493258982523513e+00   1.4189505831663081e+00   1.4165693070836118e+00   1.4466165800112050e+00   1.2071904556955728e+00   1.3587946044987613e+00   1.3929526845603961e+00   1.3211624577342584e+00   1.4409706228442345e+00   1.4404761253163401e+00   1.2809421948041639e+00   1.2802356464752080e+00   1.3899031332168614e+00   1.3108615431403607e+00   1.3219503568909987e+00   1.3481752692375764e+00   1.4686900994318048e+00   1.4071226167891646e+00   1.3460264635818069e+00   1.3682931249416790e+00   1.3649929232951332e+00   1.3050318134644991e+00   1.1839190424276798e+00   1.3720163274582056e+00   1.3820632797290564e+00   1.3503739514917068e+00   1.3180223931569441e+00   1.2358605238686253e+00   1.1891962258562361e+00   1.2711884080064195e+00   1.2777113355386085e+00   1.2211218980931851e+00   1.3258153904031302e+00   1.4421203870627519e+00   1.4582415101874855e+00   1.4680264328141666e+00   1.4047473572490510e+00   1.3896092876630672e+00   1.4144092379919020e+00   1.3406981174763022e+00   1.5189869105045959e+00   1.3978657608648153e+00   1.4335275519540105e+00   1.4272878175351646e+00   1.3714310496212925e+00   1.2854870302834571e+00   1.3789985626110757e+00   1.3446077075963319e+00   1.4453907139459696e+00   1.2992170003910961e+00   1.2192110679982708e+00   1.3941089738126307e+00   1.4492158650639644e+00   1.4526460711577283e+00   1.5800742879409080e+00   1.4922569553108052e+00   1.2744583944453740e+00   1.3645654370960616e+00   1.4268727106196331e+00   1.4527711930286618e+00   1.4159158536008678e+00   1.4125240670836063e+00   1.4344486261870462e+00   1.5274281772651186e+00   1.2769017966940222e+00   1.4117848268021642e+00   1.3891610268378969e+00   1.2593474942222136e+00   1.2276251865521015e+00   1.3595279795660462e+00   1.4206391321412835e+00   1.4031581761112950e+00   1.2799928079575678e+00   1.3788391684635783e+00   1.3916231362327103e+00   1.4187684528717168e+00   1.3697546803401413e+00   1.3821310552347958e+00   1.3825285601534620e+00   1.2870256460367648e+00   1.3625982395977911e+00   1.3855903543093508e+00   1.3452004761589651e+00   1.3720198420501855e+00   1.3691610071623281e+00   1.4607181964700244e+00   1.4725967404806153e+00   1.4647187823712324e+00   1.3919857480828259e+00   1.3380423093751481e+00   1.2987222335272495e+00   1.4242824925106747e+00   1.3690782799753414e+00   1.3308637229594240e+00   1.2716121995252923e+00   1.3872271608771165e+00   1.3537297055375610e+00   1.3383989941278129e+00   1.5054802872952371e+00   1.3739953728303578e+00   1.3027458278675306e+00   1.5769031065708836e+00   1.5785065161371510e+00   1.4167759739528694e+00   1.3591156865917475e+00   1.3500918938974653e+00   1.5686645134142738e+00   1.5079162121503740e+00   1.5057545528456466e+00   1.4533030996646947e+00   1.4176418640817754e+00   1.5381076940965754e+00   1.4788533817808480e+00   1.3961332076321253e+00   1.3970970380134473e+00   1.4487668194015590e+00   1.4644357862927357e+00   1.2251968256403267e+00   1.3054088235001777e+00   1.4430741788158405e+00   1.2415865566678042e+00   1.5364039243227021e+00   1.4382736587927800e+00   1.3602832060599070e+00   1.3988312205330100e+00   1.5105197021557442e+00   1.5146105312268172e+00   1.5820403096881710e+00   1.3500687479508757e+00   1.3812429161679300e+00   1.4555471967316478e+00   1.4158323437018672e+00   1.4797284430420115e+00   1.3154602783161100e+00   1.4063047907163830e+00   1.4194294310570776e+00   1.3695922718080156e+00   1.3738195709902867e+00   1.2963433097700976e+00   1.3675654513144810e+00   1.3224664634167784e+00   1.3367645729519797e+00   1.4353222405892656e+00   1.4065297986034315e+00   1.3332875405417262e+00   1.4109231799446680e+00   1.4850596227871076e+00   1.4759621040836972e+00   1.3895037179997969e+00   1.4021812002383318e+00   1.3357998199435372e+00   1.2978423124916600e+00   1.2015088068388036e+00   1.3320785391867580e+00   1.3365313264406373e+00   1.2698968205923615e+00   1.4340721105419389e+00   1.4347140888975971e+00   1.2400601075470683e+00   1.3183055355908362e+00   1.6480907064159303e+00   1.7377928879107882e+00   1.3549165896051132e+00   1.2632056911290084e+00   1.2872342963434042e+00   1.5264622870314528e+00   1.5709053859105651e+00   1.6245590369975913e+00   1.3357785713482992e+00   1.4321148989668362e+00   1.3915917255693637e+00   1.4315403267183124e+00   1.3966824641323363e+00   1.4549217304331146e+00   1.4167746840934676e+00   1.3989411662517377e+00   1.4020773137630771e+00   1.4319881407270261e+00   1.3953566062606584e+00   1.3772049293953650e+00   1.3858060910670349e+00   1.5421189422520509e+00   1.6061279531585086e+00   1.7453445973236135e+00   1.7394623237390594e+00   1.4529721205558483e+00   1.4530203184000581e+00   1.2000214895738517e+00   1.2892890992942165e+00   1.4901486450703454e+00   1.6224777360307212e+00   1.4434127581542087e+00   1.4749946897591568e+00   1.4464255370069607e+00   1.4704847433572923e+00   1.3932695102586785e+00   1.2876438891742263e+00   1.6767436975195604e+00   1.4171867087776686e+00   1.4755487331477060e+00   1.4258390212465935e+00   1.4226884269085789e+00   1.4210842118074007e+00   1.4630625603437322e+00   1.4547219138880314e+00   1.4671408882977852e+00   1.4134936601076851e+00   1.5446330705768538e+00   1.4985521313109389e+00   1.6630021547121521e+00   1.2766804820270812e+00   1.4561363424018705e+00   1.4294014713933887e+00   1.4083249242942624e+00   1.3787438238972627e+00   1.3641023695718884e+00   1.3727955027214258e+00   1.3075433250429698e+00   1.7374151757602765e+00   1.3337684454570626e+00   1.4184886841419106e+00   1.4719443848257416e+00   1.3142300419748236e+00   1.3661597758669275e+00   1.3474581400412169e+00   1.3394653894808062e+00   1.4270935115479801e+00   1.4554355310807821e+00   1.4424180998853391e+00   1.4511500310761136e+00   1.4568239502647060e+00   1.4346720571096612e+00   1.4534942218997489e+00   1.3536016761949348e+00   1.3599958254325404e+00   1.4161735610800965e+00   1.4096657551892375e+00   1.4349735513020840e+00   1.4737580466563152e+00   1.3800792057157700e+00   1.4253572036549176e+00   1.3577742008003719e+00   1.3429052206592740e+00   1.3777311565282127e+00   1.4749674318421562e+00   1.5381661960319317e+00   1.4780578021688466e+00   1.3902918381585421e+00   1.4174723937387976e+00   1.3892600464714684e+00   1.3894749286925032e+00   1.6295091176265684e+00   1.6081578317761898e+00   1.7061975918641350e+00   1.2220538394470268e+00   1.3305357382861771e+00   1.1963685992383928e+00   1.4765195778172711e+00   1.5379316600125799e+00   1.4136911271190964e+00   1.4145004480674976e+00   1.3415678669376092e+00   1.3611585367029686e+00   1.4002212260702029e+00   1.4044421415091095e+00   1.4529763297113110e+00   1.4499664160420656e+00   1.4070932999875385e+00   1.5282257785931865e+00   1.3308949334102371e+00   1.3822704735293825e+00   1.4163517893536874e+00   1.3998830761306749e+00   1.4093061620388678e+00   1.4077931517692446e+00   1.3800016652322882e+00   1.3412385108308424e+00   1.3603315229840101e+00   1.3527869392522027e+00   1.4116283162879799e+00   1.6689908616946179e+00   1.5194814524395472e+00   1.4904349550220377e+00   1.5972035953719219e+00   1.3423628230087008e+00   1.2346967276730361e+00   1.2929480074123596e+00   1.3164069089032522e+00   1.3804455407903682e+00   1.4301342227432887e+00   1.4024438495796521e+00   1.4076261136581396e+00   1.4580275834944214e+00   1.4608844739849514e+00   1.4180375855095473e+00   1.4151058918026431e+00   1.4377288684197571e+00   1.6037987667827309e+00   1.7459351624921760e+00   1.4101236802471830e+00   1.3972748093857812e+00   1.4436516602569778e+00   1.4022896897537656e+00   1.5351213222784068e+00   1.5248018547011810e+00   1.4483373988373525e+00   1.4545697433033813e+00   1.3419773517759579e+00   1.3066309561990648e+00   1.3966959842255418e+00   1.3365810407698182e+00   1.3074773573754188e+00   1.3922964406201488e+00   1.3898868930720825e+00   1.3634474965146626e+00   1.5296773577967773e+00   1.5703146164591346e+00   1.2803671580643727e+00   1.2876797625204246e+00   1.2952169420353716e+00   1.2258644026056411e+00   1.2315721307207339e+00   1.1881964453844747e+00   1.2943929955370026e+00   1.2721049206076962e+00   1.3283280263855963e+00   1.2431323739960778e+00   1.3601417746416768e+00   1.3063073634592954e+00   1.2918350867988193e+00   1.3083177953631278e+00   1.3235570996169683e+00   1.2850667940198586e+00   1.2916848736205671e+00   1.2675103059155211e+00   1.5185727601903547e+00   1.5752028338910513e+00   1.4408057174814131e+00   1.4164122595622763e+00   1.3846095562035605e+00   1.4565321753956124e+00   1.3427316537470351e+00   1.3751868010954795e+00   1.5449962937188095e+00   1.6087871662286295e+00   1.2831450778181241e+00   1.2704926954397564e+00   1.3361887912232469e+00   1.3733048017949774e+00   1.3872485734180562e+00   1.4275826765740662e+00   1.4006748660071326e+00   1.3600095845070159e+00   1.6565680677729036e+00   1.5958471235133143e+00   1.6036008870518721e+00   1.5777889766898734e+00   1.7088379810652579e+00   1.7368045084974444e+00   1.6546260362743628e+00   1.5478387297172325e+00   1.5447601658461567e+00   1.6048686283960505e+00   1.5289053575150469e+00   1.6072479587360640e+00   1.6969728486899056e+00   1.6140264676215554e+00   1.5530066094837429e+00   1.6144158922382714e+00   1.3219688586734661e+00   1.2555575141396296e+00   1.2802146290542318e+00   1.2478378248324113e+00   1.2173217548263537e+00   1.2617973421274227e+00   1.1269808521653808e+00   1.1275562627314779e+00   1.1829343540941519e+00   1.2236059413581988e+00   1.4405287796876456e+00   1.5648757341773873e+00   1.3461611123639277e+00   1.3083988988662840e+00   1.3903570589181404e+00   1.3725485723740705e+00   1.4925912113568067e+00   1.3515488963187847e+00   1.3290571767460648e+00   1.3742140663767435e+00   1.2674873380786069e+00   1.3967646220700847e+00   1.4090481560809678e+00   1.3868280030277229e+00   1.4063374906549602e+00   1.3753725957886640e+00   1.3793584977824338e+00   1.3105636900236350e+00   1.3708498229705162e+00   1.6996629631498312e+00   1.6070215016542153e+00   1.5096662110205255e+00   1.5815399917127422e+00   1.6267989365259024e+00   1.5429088107340960e+00   1.3671640700108638e+00   1.3782702344529909e+00   1.3606446130546566e+00   1.3827259797157430e+00   1.3997180071468389e+00   1.4042721103582756e+00   1.4372154362579055e+00   1.2844498869736263e+00   1.4419172288353221e+00   1.5533312308792295e+00   1.5967070080833223e+00   1.3121219750972586e+00   1.5193182168121004e+00   1.4303612780979444e+00   1.7445374731184216e+00   1.6386406033431731e+00   1.4110103329721111e+00   1.7453152809504535e+00   1.6405517716410591e+00   1.3735727178253165e+00   1.3563888922441782e+00   1.2981539882870488e+00   1.2422066983772364e+00   1.3007836307262999e+00   1.3859418821252996e+00   1.4064654811967929e+00   1.3565102519702730e+00   1.3613632528750839e+00   1.5927497610631500e+00   1.2642697536294083e+00   1.3196375487722019e+00   1.3397377997544924e+00   1.3936250520545845e+00   1.5274408408107700e+00   1.4624680388256610e+00   1.3135858369907703e+00   1.4123392479884784e+00   1.3674631025352566e+00   1.5249267927353456e+00   1.3942178569402262e+00   1.2684175720925168e+00   1.3587490920268388e+00   1.3896467776860122e+00   1.3696317363518988e+00   1.3892937200955391e+00   1.2725749640209656e+00   1.2737943885278402e+00   1.1985543898639079e+00   1.4550961483823810e+00   1.4808066288259567e+00   1.2067369405693866e+00   1.2749748397498972e+00   1.4396747247088468e+00   1.4242532374719148e+00   1.4496386277774884e+00   1.3520032610093340e+00   1.3427776730750665e+00   1.3994451872752236e+00   1.3339530851618508e+00   1.2323066766937476e+00   1.5386416023235043e+00   1.5296413410623870e+00   1.3760896556910489e+00   1.4226118072875156e+00   1.3035206076436623e+00   1.3843170791801340e+00   1.3961565111029008e+00   1.4361566504851400e+00   1.4559917868254022e+00   1.3133323029474027e+00   1.3735919009881463e+00   1.2910238354202124e+00   1.3312233816121728e+00   1.3070744094736100e+00   1.3188205573985190e+00   1.5153513993808359e+00   1.4237173475084823e+00   1.6788952259073655e+00   1.6113819007501380e+00   1.3960942559021734e+00   1.3791225199330244e+00   1.2518410496182235e+00   1.3940400296926745e+00   1.3532190425193533e+00   1.6950152352205912e+00   1.5655165879492534e+00   1.3635294943439420e+00   1.2773589165197050e+00   1.3132868026810296e+00   1.2311990467001144e+00   1.4881394418211098e+00   1.5408740781411290e+00   1.4800802588412945e+00   1.4509847474864168e+00   1.2956197843656616e+00   1.3788655265390579e+00   1.4294190164480816e+00   1.4097625581018476e+00   1.4185701118246161e+00   1.4212175836950474e+00   1.3521112090579357e+00   1.3819101383426846e+00   1.3188070244455996e+00   1.3537429176456908e+00   1.4218443762922937e+00   1.4245181167547747e+00   1.3827863999833769e+00   1.3641869200804975e+00   1.4081751880251834e+00   1.3977995341593297e+00   1.3148019119171159e+00   1.3997114963396435e+00   1.3897503279017309e+00   1.1982084558580830e+00   1.2690410114713191e+00   1.2625420185998983e+00   1.2994444293735110e+00   1.4548578075620879e+00   1.4913177376163183e+00   1.3517213774010095e+00   1.3652001311335338e+00   1.3997302743884583e+00   1.4168808870286462e+00   1.3825888345519968e+00   1.4114610029503059e+00   1.4451187065816680e+00   1.3752649837642967e+00   1.3608049653380900e+00   1.3853222114137482e+00   1.5226883343378399e+00   1.5989858324970041e+00   1.4181323302991604e+00   1.3823679020229895e+00   1.3709653785894376e+00   1.3935719920535119e+00   1.4686989395501140e+00   1.4399456432090108e+00   1.2145549548570660e+00   1.6408803691589389e+00   1.6439751714205530e+00   1.4763779846043530e+00   1.3072881554493634e+00   1.4096031427421776e+00   1.3869306572964424e+00   1.3990727569462440e+00   1.3204824017622117e+00   1.3545089021651122e+00   1.2638261971704670e+00   1.4239432162093777e+00   1.3967488927795586e+00   1.4631007639907720e+00   1.4526382363452848e+00   1.2459450274366941e+00   1.3037260380100397e+00   1.4669581522089792e+00   1.3283253682370144e+00   1.3648437779374321e+00   1.4392635014821344e+00   1.4629932732140465e+00   1.4190437103109268e+00   1.3903309882473931e+00   1.3678500050759774e+00   1.4023040101313415e+00   1.4130309187417343e+00   1.4727574660470599e+00   1.19038600654229