<?xml version="1.0"?>
<VTKFile type="UnstructuredGrid"  version="0.1"  >
<UnstructuredGrid>
<Piece  NumberOfPoints="1109" NumberOfCells="1972">
<Points>
<DataArray  type="Float64"  NumberOfComponents="3"  format="ascii">0 1 0  0 0 0  1 0 0  1 1 0  0.8968458805257912 0.5501332934257217 0  0.9 0.5 0  0.8968458805257911 0.4498667065742781 0  0.8874332644514524 0.4005240451340579 0  0.8719105943553006 0.3527501789261288 0  0.8505226720175453 0.3072985303593135 0  0.823606797749979 0.2648858990830106 0  0.7915874509685645 0.2261811576285244 0  0.7549695958994758 0.1917947028896841 0  0.7143307179915988 0.162268829799194 0  0.6703117166260287 0.138069179013592 0  0.6236067977499788 0.1195773934819385 0  0.5749525258342897 0.1070850997085245 0  0.5251162078117251 0.1007893086286913 0  0.4748837921882747 0.1007893086286913 0  0.4250474741657101 0.1070850997085245 0  0.376393202250021 0.1195773934819386 0  0.3296882833739712 0.1380691790135921 0  0.2856692820084015 0.1622688297991939 0  0.2450304041005242 0.1917947028896843 0  0.2084125490314353 0.2261811576285246 0  0.1763932022500209 0.2648858990830109 0  0.1494773279824546 0.3072985303593139 0  0.1280894056446994 0.3527501789261288 0  0.1125667355485475 0.4005240451340581 0  0.1031541194742088 0.4498667065742783 0  0.09999999999999998 0.5 0  0.1031541194742089 0.5501332934257218 0  0.1125667355485476 0.5994759548659421 0  0.1280894056446995 0.6472498210738713 0  0.1494773279824546 0.6927014696406861 0  0.176393202250021 0.7351141009169893 0  0.2084125490314355 0.7738188423714756 0  0.2450304041005241 0.8082052971103157 0  0.2856692820084012 0.837731170200806 0  0.3296882833739709 0.8619308209864078 0  0.3763932022500212 0.8804226065180615 0  0.4250474741657101 0.8929149002914756 0  0.4748837921882746 0.8992106913713087 0  0.5251162078117254 0.8992106913713087 0  0.5749525258342899 0.8929149002914755 0  0.623606797749979 0.8804226065180614 0  0.6703117166260291 0.8619308209864078 0  0.7143307179915986 0.8377311702008061 0  0.754969595899476 0.8082052971103157 0  0.7915874509685646 0.7738188423714755 0  0.823606797749979 0.7351141009169893 0  0.8505226720175454 0.6927014696406861 0  0.8719105943553006 0.6472498210738712 0  0.8874332644514524 0.599475954865942 0  0.5 1 0  0 0.5 0  1 0.5 0  0.5 0 0  0.75 1 0  0.25 1 0  0 0.75 0  0 0.25 0  1 0.25 0  1 0.75 0  0.75 0 0  0.25 0 0  0.625 1 0  0.375 1 0  0 0.625 0  0 0.375 0  1 0.375 0  1 0.625 0  0.625 0 0  0.375 0 0  0.125 0 0  0.875 0 0  1 0.125 0  0 0.875 0  0.125 1 0  0.875 1 0  0 0.125 0  1 0.875 0  0.1443946775413214 0.1213187937376868 0  0.8556053224586788 0.8786812062623132 0  0.8556053224586785 0.1213187937376867 0  0.1275360334547992 0.8724639665452008 0  0.9261623581710797 0.1875 0  0.09234641934319709 0.2082689144241477 0  0.9076535806568029 0.7917310855758523 0  0.08970099689351971 0.7603836651344988 0  0.2182130526099624 0.9079579669686324 0  0.07086411995581518 0.07086411995581518 0  1 0.0625 0  0.9375 0 0  0.0625 1 0  0 0.9375 0  0.9291358800441849 0.9291358800441849 0  0.7304772975931939 0.08076335202639119 0  0.2695227024068061 0.08076335202639115 0  0.7697819974699807 0.9105968468121929 0  1 0.6875 0  1 0.3125 0  0.06784168511078095 0.2966417331842567 0  0 0.6875 0  0.1875 0 0  0.8125 0 0  0.9212459744619301 0.2681742056774029 0  0.3125 1 0  0.6875 1 0  0.922097136530977 0.07790286346902295 0  0.9261304603587264 0.7150772115644075 0  0 0.8125 0  0.07432186328509671 0.9256781367149033 0  0.06317182982585627 0.84375 0  0.8548473925302104 0.1928285354262928 0  0.2914274450692525 0.9272721924131209 0  0.6710199663399635 0.9319471281137308 0  0.9226595291420543 0.8597667107019437 0  0.0773404708579461 0.1402332892980563 0  0.8125 1 0  0.06054886616517211 0.65625 0  0.9362657027224049 0.3336129027547622 0  0.1841195715992005 0.8363784907223111 0  0.6625377124131507 0.06023416665880475 0  0.3125 0 0  0.34375 0.06016090820395464 0  0.2153846372786545 0.1270381302276244 0  0.8024953780019808 0.07187189600048093 0  0.1546395545758083 0.9367961467266345 0  0.5625 1 0  0.4375 0 0  0.4375 1 0  0.5625 0 0  0.1844766880788185 0.06724298999790632 0  0.9369725282473387 0.6419809811402504 0  0.791523351719164 0.1369023590147849 0  0.8285961364903059 0.9374018659319692 0  1 0.4375 0  0 0.4375 0  1 0.5625 0  0 0.5625 0  0 0.3125 0  1 0.8125 0  0.0625 0 0  0 0.0625 0  0 0.1875 0  1 0.1875 0  1 0.9375 0  0.9375 1 0  0.6875 0 0  0.1875 1 0  0.8126465958421825 0.8329348088176629 0  0.1550798535647612 0.1867680086445373 0  0.8631981559835366 0.06032295929500282 0  0.1449089435554358 0.7884432695884597 0  0.3538206140027237 0.9399564250283491 0  0.944997661525766 0.4151121561005554 0  0.05500233847423393 0.5848878438994446 0  0.0520912947951912 0.40625 0  0.59375 0.05063263303723638 0  0.6113142584645842 0.9411585052804305 0  0.402402637527157 0.05243074290023167 0  0.05237021982595785 0.7146869946988353 0  0.9514280734197595 0.53125 0  0.04857192658024048 0.46875 0  0.1138995451272664 0.2618291859344329 0  0.1276043399716366 0.06698080255494471 0  0.9496852823490703 0.5873315358652272 0  0.7164226875694513 0.8936714072472519 0  0.728445758907293 0.9483406189827143 0  0.05037626111865807 0.3500677784994627 0  0.9425695009311538 0.1320174568820216 0  0.4108317852857326 0.9488345682840208 0  0.5398628985995173 0.04893133705064829 0  0.46875 0.04573672429098317 0  0.4652931800096448 0.9529811055869081 0  0.53125 0.9542632757090168 0  0.8785971272885281 0.7441734326495726 0  0.8518416617605847 0.7931754903661554 0  0.04183404050302509 0.78125 0  0.7612395846848441 0.8595654412716175 0  0.2310588911243982 0.8579303197600836 0  0.04148050284378633 0.21875 0  0.9494864361787021 0.7612608042848362 0  0.9500000000000001 0.4721339993173143 0  0.04999999999999998 0.5278660006826856 0  0.8781553628189985 0.9246252444972441 0  0.8731991046476956 0.2435858407989878 0  0.09811738497342513 0.6912987895906199 0  0.78125 0.9600244726998853 0  0.09951704281279977 0.8094116423849811 0  0.1723930843372325 0.8914409560171174 0  0.21875 0.9592823984315264 0  0.8808053857873319 0.8333253975559158 0  0.8963977713581862 0.1485308906960134 0  0.9538351164349618 0.2296733193971382 0  0.9502525126806526 0.8180081280125184 0  0.2312490385075739 0.04727387874777968 0  0.2715914187620846 0.8835921407480765 0  0.8075381809024645 0.880775593205643 0  0.71875 0.03518728418751645 0  0.28125 0.03518728418751642 0  0.7646042202168328 0.04444036111707996 0  0.9023329991729737 0.03666350737326187 0  0.03401531498238862 0.15625 0  0.1188530488980251 0.1590855287670435 0  0.9585274478449393 0.2940602659505009 0  0.122777080947294 0.7293581095092172 0  0.9670375667902916 0.09375 0  0.2005134857209875 0.1810792546569654 0  0.04567406045797464 0.8878541658538743 0  0.09375 0.966869578205468 0  0.1562008719445321 0.03232788333739163 0  0.8953932105853648 0.3139420780646932 0  0.7990572522972532 0.1815363722387022 0  0.0968875242781685 0.03463409819727443 0  0.03223722036876893 0.09375 0  0.9004223587754672 0.9633108159792649 0  0.9677627796312311 0.90625 0  0.1015654613822437 0.1029847255361322 0  0.9612688796250578 0.9612688796250578 0  0 0.03125 0  0.03125 0 0  0.04144949962501476 0.9585505003749852 0  0.9558898336496962 0.04411016635030385 0  0.9068917513393455 0.6748714165270275 0  0.1368346895292699 0.830580202512584 0  0.1325215314767946 0.2232188145997174 0  0.07053058491102715 0.2523250971165124 0  0.28125 1 0  0.2618257196382527 0.9585732837283344 0  0.08628220552312613 0.8784418410901162 0  0.6885162251696433 0.09694521726220126 0  0.7451861497985837 0.1260293295250874 0  0.313422114933215 0.09491014745286984 0  0.2604190570795071 0.1249189143540631 0  0.9242490330121279 0.3761177923443456 0  0.8294827367589617 0.1534479284350518 0  0 0.28125 0  0.1085704015556412 0.3026527142683792 0  0.6454377779583714 0.9642341400769985 0  0.1735682150935896 0.1501527832362767 0  0.9118639212665761 0.2270478094042325 0  0.9675029085737417 0.7231519194735394 0  0.9540854621793986 0.6818714685662951 0  0.3411855214203015 0.9011195850022233 0  0.2203778463487443 0.08657146517086198 0  0.04103470738435357 0.04103470738435357 0  0.5692124642834736 0.9350661676969988 0  0.1143804055696223 0.9319617439078584 0  0.08871656954519293 0.3663659127109965 0  0.9630811790855398 0.168250321868886 0  0.8941478109554366 0.1077225817667272 0  0.7685953432959879 0.09339992494635127 0  0.9613334331586147 0.8673647296762501 0  0.84375 0 0  0.8276419188889859 0.03874003995670209 0  0.4987074584280061 0.9312004428379874 0  0.4999999999999999 0.07012294039149713 0  0.906353444207591 0.8962759602721756 0  0.8317000502825128 0.2255938539236174 0  0.060982293117454 0.1847248153131282 0  0.84375 1 0  0.8601163332513452 0.9625346208269469 0  0.07696867235812772 0.6190771663714262 0  0.03866375363197156 0.624370156890833 0  0.386395970129115 0.9182613855572013 0  0.59375 1 0  0.03763634871355165 0.2725691404761272 0  1 0.34375 0  0.9619513789393942 0.3638256452123659 0  0.1705891391383945 0.2215719862571997 0  0.2993345649440622 0.9643978827856838 0  0.2548390693531445 0.917543736811073 0  0.4376701674058487 0.06983678836603174 0  0.6249880952696493 0.07804203554412367 0  0.8891633930840495 0.7080603551933189 0  0 0.65625 0  0.8857454763750297 0.2783067670731572 0  1 0.65625 0  0 0.59375 0  0.9147359581367025 0.7498372322849914 0  0.34375 1 0  0.08128436453222096 0.3306040779845135 0  0.8370204413255111 0.08803482611562097 0  0.4399236117509409 0.9264634199869409 0  0.3763243110806382 0.08093997073896844 0  1 0.78125 0  0.3058827875685617 0.8943637152968825 0  0.891027260700638 0.1971556622156984 0  0.1814462944911871 0.9630031969500565 0  0.1812917788273262 0.1067749496803429 0  0.2291605611046911 0.1598957180171764 0  0.630525566101238 0.03837025329843378 0  0.03363261960646192 0.92260900189631 0  0.2960793559902691 0.1260912307633523 0  0.03663553287191564 0.8179172045954961 0  0.02996523389584273 0.8560987956667739 0  0.09880166525369549 0.8450583124835681 0  0.6923212173088138 0.150169004406393 0  0.502
[...]
<CellData  Scalars="detF"> 
<DataArray  type="Float64"  Name="detF"  format="ascii">1.1696546188057015e+00   1.1398713553708106e+00   1.2068381638885408e+00   1.1649693325792541e+00   1.1637461797524300e+00   1.2487714148565225e+00   1.1676370897039579e+00   1.1824404944408631e+00   1.2030961685622421e+00   1.1958593296207130e+00   1.1660063470561461e+00   1.1647299515363811e+00   1.2123883479742661e+00   1.1386515621270779e+00   1.1774915783080064e+00   1.1783929730280707e+00   1.1535885647152775e+00   1.1612956428766750e+00   1.2454386164559641e+00   1.1700476301645004e+00   1.1772441476829993e+00   1.1411093783318247e+00   1.1619761115307872e+00   1.1631491730662167e+00   1.1794351501791323e+00   1.2096290435878649e+00   1.1701087724349994e+00   1.1397465050487834e+00   1.1561545189642277e+00   1.1293005391444007e+00   1.1531227400441215e+00   1.2197926548697788e+00   1.1979614225061490e+00   1.1855632321003053e+00   1.1985058081072524e+00   1.1046927235878257e+00   1.1505946005172711e+00   1.1479672091182200e+00   1.0913933509196179e+00   1.1279686134712188e+00   1.1332308806193541e+00   1.0932399066045577e+00   1.1508889107746156e+00   1.1546615458275442e+00   1.1534998900476052e+00   1.1554069508737648e+00   1.1552248837329748e+00   1.1579198858679920e+00   1.1365950670695726e+00   1.1462916129925196e+00   1.1594562021802379e+00   1.1661665009340090e+00   1.1564389392092274e+00   1.1352954198120047e+00   1.1506055410083333e+00   1.1739436439145554e+00   1.1672919499844556e+00   1.1597127757148564e+00   1.1565532367852795e+00   1.0899639891012134e+00   1.0943991763979568e+00   1.1305673287223623e+00   1.1536600494502181e+00   1.1227737351547185e+00   1.0962760487168692e+00   1.1597647879911508e+00   1.1602003807636037e+00   1.1495580315000329e+00   1.1544266898974622e+00   1.1554827527947695e+00   1.1798092449340365e+00   1.1769832801371543e+00   1.1608884065024301e+00   1.1708226947069551e+00   1.1669755284729735e+00   1.1833275465453168e+00   1.1628173864572742e+00   1.1699994856258071e+00   1.1654470623964321e+00   1.1364705273066629e+00   1.1673433496669969e+00   1.1725433104267988e+00   1.1924248725278956e+00   1.1682551277363755e+00   1.1596044809644661e+00   1.1371976323251287e+00   1.1320178788657724e+00   1.1790055887085169e+00   1.1344867249366861e+00   1.1547302580228758e+00   1.0758208601239976e+00   1.1344702263963684e+00   1.1330190336563521e+00   1.1534270850372870e+00   1.1411260727863071e+00   1.1675901102517212e+00   1.1629237153155687e+00   1.1854494509036910e+00   1.1630211566291224e+00   1.1541723602519045e+00   1.1284457886186181e+00   1.1496134139956282e+00   1.1427341126750674e+00   1.1351424219145074e+00   1.1160575344578536e+00   1.1817745073815260e+00   1.1706955251478799e+00   1.1527928664646667e+00   1.1637742337856221e+00   1.1843326823754319e+00   1.1668257638847983e+00   1.1497719975302760e+00   1.1619870873500471e+00   1.1639367605791733e+00   1.1517381491428542e+00   1.1539393028715363e+00   1.1168179696477749e+00   1.1258537356907456e+00   1.2175776153202038e+00   1.2415041406582024e+00   1.1982895251705870e+00   1.2254666692321889e+00   1.2252919763118220e+00   1.1597790602246170e+00   1.1498766001271354e+00   1.2038897750552815e+00   1.1533890396917748e+00   1.1575003139414435e+00   1.1523625324972981e+00   1.2422331749191899e+00   1.2123913572972564e+00   1.1527153987140144e+00   1.2284405324968712e+00   1.2045915601764745e+00   1.1263218149751610e+00   1.1717077220732932e+00   1.0980348958253949e+00   1.1299349275625765e+00   1.1467830335300837e+00   1.1326951276000778e+00   1.1229511420342837e+00   1.1821535649374122e+00   1.2557911894047453e+00   1.1587556367154739e+00   1.1608078242396216e+00   1.1590916765449286e+00   1.1528429407045286e+00   1.1150090094580054e+00   1.1468760132033933e+00   1.1625708330379718e+00   1.1642033309902411e+00   1.2361137263319530e+00   1.2092313500116265e+00   1.2523024011863038e+00   1.2079483226347687e+00   1.2290620993250625e+00   1.2116530842041431e+00   1.1751016673520009e+00   1.2031315775593967e+00   1.2213757956580116e+00   1.2321721720843259e+00   1.2784009052411840e+00   1.1999734352427183e+00   1.2403593673135191e+00   1.2590131956258164e+00   1.1541957701860597e+00   1.1579475907414860e+00   1.1404887133521231e+00   1.2475883732236630e+00   1.2300398848334817e+00   1.1598536808555211e+00   1.1674490765434304e+00   1.1759662754223004e+00   1.1726398851045541e+00   1.1821658612137318e+00   1.1105135492051497e+00   1.1360265532087037e+00   1.2225903145830490e+00   1.2225770994116667e+00   1.2122995703401380e+00   1.2037250968623192e+00   1.2229997919388262e+00   1.1675979677716446e+00   1.1534721682829951e+00   1.1592416953353204e+00   1.1517936742557098e+00   1.1569059923417555e+00   1.1456591994177012e+00   1.1635935928118650e+00   1.1687774465899858e+00   1.1600340840506809e+00   1.1622322709551596e+00   1.1683574899670692e+00   1.2690232812491513e+00   1.2137329895940505e+00   1.2438060213564170e+00   1.1970613306538747e+00   1.1438858807599503e+00   1.1273674991011382e+00   1.1552171440431958e+00   1.1681345756313068e+00   1.1622632491980491e+00   1.1337578010968117e+00   1.1624361931561704e+00   1.1630632635669902e+00   1.1553611843212077e+00   1.1532915515035891e+00   1.1589199743630039e+00   1.1399645710964879e+00   1.1394077088396088e+00   1.1594534219659280e+00   1.1511811291866776e+00   1.1358955711087941e+00   1.1431819883944254e+00   1.1486374140721376e+00   1.1482251127714009e+00   1.1719760516712758e+00   1.1560441167928421e+00   1.1779075472124667e+00   1.1530857559746723e+00   1.1606880369823478e+00   1.1627219306203991e+00   1.1596995053857240e+00   1.1537123723317215e+00   1.1581756271719674e+00   1.1404286457098567e+00   1.1115457114832161e+00   1.1302612026431207e+00   1.1478006639001048e+00   1.1376996925549949e+00   1.1824239240343017e+00   1.1420684761836808e+00   1.1559342728750401e+00   1.1295141374332198e+00   1.1067319804708675e+00   1.1571086676113271e+00   1.1617674540318523e+00   1.0918979513022038e+00   1.0969673755385303e+00   1.1341659757795677e+00   1.1157903482456002e+00   1.1566215957613650e+00   1.1712012436591246e+00   1.1642449986148449e+00   1.1534241345461911e+00   1.1177757191836342e+00   1.1213573132981867e+00   1.1244759936643818e+00   1.1089237728041212e+00   1.0656565320607549e+00   1.1239596460255454e+00   1.1265234477022366e+00   1.1163385975819222e+00   1.1088680677017040e+00   1.0853192434344525e+00   1.0673865616824427e+00   1.0887863432436533e+00   1.0922297496403368e+00   1.0743118745913169e+00   1.1685952148826955e+00   1.1564198518431514e+00   1.1547503527662781e+00   1.1641383399865850e+00   1.1500690941167542e+00   1.1739242067796574e+00   1.1839918435590959e+00   1.1624679239256681e+00   1.1889033580449626e+00   1.1653263782955516e+00   1.1507992640521147e+00   1.1413411022972932e+00   1.1690979454797685e+00   1.1537197505375003e+00   1.1615940812722065e+00   1.1608833438573885e+00   1.1629240554260154e+00   1.1448931152935746e+00   1.1497878386857552e+00   1.1869504258690864e+00   1.1533477476828351e+00   1.1536598335605412e+00   1.2144397568546956e+00   1.1867739494708947e+00   1.1555564338457318e+00   1.1674533461971852e+00   1.1481645165684049e+00   1.1638649780436492e+00   1.1634718418666130e+00   1.1597771373526680e+00   1.1820680965952857e+00   1.2047492296002358e+00   1.1528781189239419e+00   1.1575488520159924e+00   1.1456543311657608e+00   1.0858219723984595e+00   1.0757484312524839e+00   1.1788723015587494e+00   1.1421571442992711e+00   1.1350099619189453e+00   1.1633361562039826e+00   1.1418513780509829e+00   1.1489412137677473e+00   1.1400492706016356e+00   1.1207084889760599e+00   1.1579148271896333e+00   1.1569055586162549e+00   1.1023123612731978e+00   1.1233979033527930e+00   1.1434859978055847e+00   1.1302620301219801e+00   1.1352645760369275e+00   1.1406720674577222e+00   1.2063778075662930e+00   1.2188119557965267e+00   1.2176042211476683e+00   1.1309441568570731e+00   1.1131188575544029e+00   1.1452365227290056e+00   1.1542288280872779e+00   1.1395037967462218e+00   1.1242822341523797e+00   1.0998770917568153e+00   1.1409315291554589e+00   1.1318809579356708e+00   1.1648693581430476e+00   1.2028775558905729e+00   1.1827468012908726e+00   1.1680619851311795e+00   1.2332074230454735e+00   1.2332734479275904e+00   1.1652234039115885e+00   1.1605071894689625e+00   1.1715665688487189e+00   1.2097303571837508e+00   1.2028236016579614e+00   1.2037435356754622e+00   1.1628668329255651e+00   1.1476025741697959e+00   1.2064008704766016e+00   1.1927369633983158e+00   1.1626564826146706e+00   1.1661455765709658e+00   1.2091451585270352e+00   1.1998184141620782e+00   1.1475741001942175e+00   1.1693855402657520e+00   1.1643118741732046e+00   1.1421467739359394e+00   1.2052298177639549e+00   1.1726621088274780e+00   1.1693571127065392e+00   1.1643734891052206e+00   1.2103633879800564e+00   1.2207841205906542e+00   1.2357179806756373e+00   1.1658567604263055e+00   1.1655818335664725e+00   1.1858856908110560e+00   1.1862492584337245e+00   1.1907782711945725e+00   1.1625679085662466e+00   1.1556318976773674e+00   1.1483249759752361e+00   1.1862784564179436e+00   1.1846004783946538e+00   1.1674873462621973e+00   1.1796772117810139e+00   1.1727938412285965e+00   1.1644076724726447e+00   1.1458939476285737e+00   1.1534095508485274e+00   1.1229669925616914e+00   1.1435462890640613e+00   1.1644043184107589e+00   1.1644194443395810e+00   1.1575009301213490e+00   1.1797189061947482e+00   1.1119469896221899e+00   1.1689246114624359e+00   1.1453420650807262e+00   1.1210765781108847e+00   1.1239909020874410e+00   1.0990936891662211e+00   1.1461875048959838e+00   1.1489604991142948e+00   1.1417396370200239e+00   1.1652702677059805e+00   1.2606680480735306e+00   1.2955011537503798e+00   1.1839895529641740e+00   1.1627895113242477e+00   1.1598803868001637e+00   1.2135035407151036e+00   1.2204962664455370e+00   1.2482638627993561e+00   1.1268015274122685e+00   1.1477226040585873e+00   1.1408042317171987e+00   1.1549288629081282e+00   1.1494610939101337e+00   1.1597549100535898e+00   1.1460220358957627e+00   1.1323887371248282e+00   1.1368812428436066e+00   1.1759409898324416e+00   1.1717272491512343e+00   1.1603704279550653e+00   1.1613577695069286e+00   1.2309284396872953e+00   1.2527133793866303e+00   1.2996132399223523e+00   1.2965275906443392e+00   1.1832838205288765e+00   1.1823350370023955e+00   1.1390745113732108e+00   1.1704510657732190e+00   1.1995819747356342e+00   1.2336267346154119e+00   1.1569592597179039e+00   1.1647628963477472e+00   1.1980505914785193e+00   1.1936971529741287e+00   1.1928967589708950e+00   1.1630453609673781e+00   1.2613331426778278e+00   1.1376550969779509e+00   1.1601431447450659e+00   1.1946835890188958e+00   1.1991624356996122e+00   1.1810427583708689e+00   1.1671379566833913e+00   1.1818713057862884e+00   1.1912878863532606e+00   1.1850661041988175e+00   1.2113701897329208e+00   1.2035817384405911e+00   1.2538402098632866e+00   1.1589342238384996e+00   1.1557706667811434e+00   1.1571291937956216e+00   1.1757016016913839e+00   1.1567053797243796e+00   1.1378956312335451e+00   1.1401965442133657e+00   1.1709925691580554e+00   1.2950752723056742e+00   1.1711547261407558e+00   1.1792777811144619e+00   1.1854962337106167e+00   1.1702191169959208e+00   1.1826701255344378e+00   1.1281731652416307e+00   1.1240740231181954e+00   1.1531491764514104e+00   1.1616176618175285e+00   1.1623561909116851e+00   1.1539751277538379e+00   1.1544608094063120e+00   1.1518536437231712e+00   1.1549212385526766e+00   1.1291598108656506e+00   1.1353698458602972e+00   1.1409245787258120e+00   1.1388617886794048e+00   1.1539102838420749e+00   1.1676498925920193e+00   1.1450181757724014e+00   1.1622813624044137e+00   1.1748642210747611e+00   1.1745190408084842e+00   1.1693374401887224e+00   1.1833788187756900e+00   1.2079585125987977e+00   1.1962602295990132e+00   1.1533491380241929e+00   1.1504482950589714e+00   1.1465171071509326e+00   1.1526190324550623e+00   1.2370439192637901e+00   1.2409054353577476e+00   1.2767607610403984e+00   1.1423178285483173e+00   1.1674216310810548e+00   1.1380464035376177e+00   1.1929765364751230e+00   1.2074839438046518e+00   1.1516361533888768e+00   1.1543390882280302e+00   1.1271711078378572e+00   1.1348146040919052e+00   1.1311752186170385e+00   1.1430655080124090e+00   1.1923185880470144e+00   1.1927391478155207e+00   1.1953605143324171e+00   1.2281942105391301e+00   1.1622205649824719e+00   1.1547710729363705e+00   1.1506087027819201e+00   1.1589732077442678e+00   1.1646970940268748e+00   1.1674129300116303e+00   1.1520323916106838e+00   1.1709883967932107e+00   1.1658902817085246e+00   1.1710275545651179e+00   1.1828979087241398e+00   1.2567669760710449e+00   1.2083790036127517e+00   1.2015931384202856e+00   1.2451076746330507e+00   1.1598548999803862e+00   1.1407737800027609e+00   1.1042662522657016e+00   1.1172405624904158e+00   1.1376075140015833e+00   1.1501324465836436e+00   1.1503199912252577e+00   1.1621655765651120e+00   1.1629298457118131e+00   1.1666311459286700e+00   1.1606905895679835e+00   1.1761943873670484e+00   1.1716649403779000e+00   1.2513178975406003e+00   1.3000654430221101e+00   1.1533523486491368e+00   1.1580846728619898e+00   1.1677126963479925e+00   1.1492952870560047e+00   1.2109995501433852e+00   1.2051695157198328e+00   1.1521569051940432e+00   1.1526140612432363e+00   1.1580826238914022e+00   1.1542173913294260e+00   1.1507734269363590e+00   1.1204914330724618e+00   1.1131926507980250e+00   1.1499959011445837e+00   1.1494253150568812e+00   1.1346687228116170e+00   1.1931362392933429e+00   1.2101739898656887e+00   1.1041867233321705e+00   1.1006600071695778e+00   1.0982600772012721e+00   1.0765239466776846e+00   1.0765777242407049e+00   1.0672132456909225e+00   1.1014046959599104e+00   1.1002275237252623e+00   1.1172401430495800e+00   1.0870345803205350e+00   1.1329102855834643e+00   1.1111745771843049e+00   1.0990240982035195e+00   1.1134088961295969e+00   1.1153395858656174e+00   1.0963418411018750e+00   1.0988054724256353e+00   1.0985687975571787e+00   1.1884594317223167e+00   1.2121091159184625e+00   1.1778097831677032e+00   1.1599590454023490e+00   1.1468795456537868e+00   1.1745058145630063e+00   1.1253922843285891e+00   1.1365931757631087e+00   1.2345257797296885e+00   1.2545761387903467e+00   1.1054882413321860e+00   1.0995130128825796e+00   1.1231313288207860e+00   1.1424503180740100e+00   1.1500169965114577e+00   1.1668285153179134e+00   1.1589697665681868e+00   1.1353498266359430e+00   1.2706070324807761e+00   1.2428112935082709e+00   1.2521617090418422e+00   1.2419088204788231e+00   1.2782899505457634e+00   1.2950153600147365e+00   1.2693666928084242e+00   1.2364450927314088e+00   1.2348092671263000e+00   1.2544042921841529e+00   1.2255374631810561e+00   1.2521950340387524e+00   1.2725374651750003e+00   1.2488410475624803e+00   1.2293366745833414e+00   1.2444983224334190e+00   1.1069490041529588e+00   1.0846182001199387e+00   1.1001517097452749e+00   1.0887167093219383e+00   1.0736094979617030e+00   1.0868836038784231e+00   1.0434241159779212e+00   1.0435090476103723e+00   1.0655270497048317e+00   1.0756395095982934e+00   1.1593445702466458e+00   1.2077822709396291e+00   1.1299111424584289e+00   1.1143417840415211e+00   1.1501155811996908e+00   1.1352401759377877e+00   1.1783961347814988e+00   1.1205867123265880e+00   1.1162892831228715e+00   1.1835624034844108e+00   1.1565098039912187e+00   1.1537476161678009e+00   1.1597224738790588e+00   1.1276543190141584e+00   1.1393472440593748e+00   1.1369614502147738e+00   1.1429548539488246e+00   1.1064768866541252e+00   1.1219148800375125e+00   1.2734560863346982e+00   1.2450177348491260e+00   1.2209035958080490e+00   1.2341558955954290e+00   1.2477537986595841e+00   1.2194333550088643e+00   1.1820352344050198e+00   1.1889957247630520e+00   1.1199282454408610e+00   1.1264541351706270e+00   1.1325287347105073e+00   1.1335464375850917e+00   1.1979364660505138e+00   1.1537584473724349e+00   1.1912608810888241e+00   1.2195310244932169e+00   1.2494233955057292e+00   1.1693360436763507e+00   1.2223417594602974e+00   1.2091660965917306e+00   1.2993465875453103e+00   1.2628130414369469e+00   1.1962104831561660e+00   1.2998962968708041e+00   1.2627258116299476e+00   1.1821607966307541e+00   1.1832822424964071e+00   1.1535434964142308e+00   1.1424244371472589e+00   1.1437518423661028e+00   1.1459370748525757e+00   1.1540613865811000e+00   1.1764360396089066e+00   1.1635751646615897e+00   1.2366153265219857e+00   1.1558829743200572e+00   1.1653353658573840e+00   1.1747014659200854e+00   1.1958573175034024e+00   1.2325021372756422e+00   1.1999072502185975e+00   1.1618927498330971e+00   1.1941539393989777e+00   1.1810258548997401e+00   1.2332857313876384e+00   1.1966939851745855e+00   1.1561531398049074e+00   1.1259975957247463e+00   1.1372641191676502e+00   1.1786062413239797e+00   1.1927241761892129e+00   1.1585409050315418e+00   1.1627837631269224e+00   1.1395607718035803e+00   1.1867193394016946e+00   1.1962057937342712e+00   1.1451046948552095e+00   1.1572170346271329e+00   1.1494246595102824e+00   1.1447877348598430e+00   1.1658371741002380e+00   1.1542444763988777e+00   1.1602253941449241e+00   1.1668157701167310e+00   1.1757327853813142e+00   1.1438749692821055e+00   1.2098869920041191e+00   1.2144162290993015e+00   1.1629858635126618e+00   1.1624336817682119e+00   1.1470837719805587e+00   1.1453355655956368e+00   1.1516027182239239e+00   1.1566005472583836e+00   1.1633188569335631e+00   1.1160141676371418e+00   1.1416544535706441e+00   1.1018444865105839e+00   1.1187602279069060e+00   1.1147137791408810e+00   1.1147094857330151e+00   1.2277886255968686e+00   1.1994014371465642e+00   1.2745169990286531e+00   1.2497790169462488e+00   1.1559979954516264e+00   1.1598270720927377e+00   1.1466412923568732e+00   1.1661115455688253e+00   1.1579806724015196e+00   1.2712898598269735e+00   1.2343531587114638e+00   1.1821058271839746e+00   1.1603765827836043e+00   1.1711532167075558e+00   1.1490357822053627e+00   1.2083113670071084e+00   1.2247280584536444e+00   1.1629496007199733e+00   1.1562057204715019e+00   1.1002332919020688e+00   1.1276075422739724e+00   1.1995816548340441e+00   1.1985309182515917e+00   1.2050573032698459e+00   1.1977133889519200e+00   1.1283520047436206e+00   1.1435524388769931e+00   1.1494534024979575e+00   1.1684348579039969e+00   1.1516084163698408e+00   1.1537568962153264e+00   1.1687744375811482e+00   1.1641739894800327e+00   1.1570918499498153e+00   1.1640701032808589e+00   1.1589695834924190e+00   1.1573218967681511e+00   1.1546507411656268e+00   1.1428263479815961e+00   1.1671750364169389e+00   1.0914730523387912e+00   1.1045905306987285e+00   1.1959929376985379e+00   1.2102130060295480e+00   1.1299740087544632e+00   1.1389046956988487e+00   1.1566157412963580e+00   1.1597522470254178e+00   1.1553516443547163e+00   1.1594782563883814e+00   1.1669085239180457e+00   1.1526926332202818e+00   1.1486170665663307e+00   1.1594567398794289e+00   1.2183652182454037e+00   1.2382646891025240e+00   1.1516308676208697e+00   1.1388438662655995e+00   1.1579871622349311e+00   1.1699539540723476e+00   1.1556943776449917e+00   1.1465011161725138e+00   1.0768117506416277e+00   1.2613755824587705e+00   1.2601234262156278e+00   1.2182140145969769e+00   1.1630173126928636e+00   1.1559804070378557e+00   1.1511398359847356e+00   1.1849448470881996e+00   1.1688309902160638e+00   1.1702781009500480e+00   1.1596905443379659e+00   1.1734744487805606e+00   1.1662131684555852e+00   1.1580641234097830e+00   1.1630753190501835e+00   1.0891220615069599e+00   1.1723711452526535e+00   1.2073735341551737e+00   1.1660157797824366e+00   1.1596603135102024e+00   1.1675666267818150e+00   1.1654086730760185e+00   1.1571502294291820e+00   1.1509963755844101e+00   1.1383860857284314e+00   1.1455341635346277e+00   1.1933886663150990e+00   1.2115773671047385e+00   1.14145414179359