<?xml version="1.0"?>
<VTKFile type="UnstructuredGrid"  version="0.1"  >
<UnstructuredGrid>
<Piece  NumberOfPoints="1109" NumberOfCells="1972">
<Points>
<DataArray  type="Float64"  NumberOfComponents="3"  format="ascii">0 1 0  0 0 0  1 0 0  1 1 0  0.8968458805257912 0.5501332934257217 0  0.9 0.5 0  0.8968458805257911 0.4498667065742781 0  0.8874332644514524 0.4005240451340579 0  0.8719105943553006 0.3527501789261288 0  0.8505226720175453 0.3072985303593135 0  0.823606797749979 0.2648858990830106 0  0.7915874509685645 0.2261811576285244 0  0.7549695958994758 0.1917947028896841 0  0.7143307179915988 0.162268829799194 0  0.6703117166260287 0.138069179013592 0  0.6236067977499788 0.1195773934819385 0  0.5749525258342897 0.1070850997085245 0  0.5251162078117251 0.1007893086286913 0  0.4748837921882747 0.1007893086286913 0  0.4250474741657101 0.1070850997085245 0  0.376393202250021 0.1195773934819386 0  0.3296882833739712 0.1380691790135921 0  0.2856692820084015 0.1622688297991939 0  0.2450304041005242 0.1917947028896843 0  0.2084125490314353 0.2261811576285246 0  0.1763932022500209 0.2648858990830109 0  0.1494773279824546 0.3072985303593139 0  0.1280894056446994 0.3527501789261288 0  0.1125667355485475 0.4005240451340581 0  0.1031541194742088 0.4498667065742783 0  0.09999999999999998 0.5 0  0.1031541194742089 0.5501332934257218 0  0.1125667355485476 0.5994759548659421 0  0.1280894056446995 0.6472498210738713 0  0.1494773279824546 0.6927014696406861 0  0.176393202250021 0.7351141009169893 0  0.2084125490314355 0.7738188423714756 0  0.2450304041005241 0.8082052971103157 0  0.2856692820084012 0.837731170200806 0  0.3296882833739709 0.8619308209864078 0  0.3763932022500212 0.8804226065180615 0  0.4250474741657101 0.8929149002914756 0  0.4748837921882746 0.8992106913713087 0  0.5251162078117254 0.8992106913713087 0  0.5749525258342899 0.8929149002914755 0  0.623606797749979 0.8804226065180614 0  0.6703117166260291 0.8619308209864078 0  0.7143307179915986 0.8377311702008061 0  0.754969595899476 0.8082052971103157 0  0.7915874509685646 0.7738188423714755 0  0.823606797749979 0.7351141009169893 0  0.8505226720175454 0.6927014696406861 0  0.8719105943553006 0.6472498210738712 0  0.8874332644514524 0.599475954865942 0  0.5 0 0  0.5 1 0  0 0.5 0  1 0.5 0  0.25 0 0  0.75 0 0  0.75 1 0  0.25 1 0  0 0.75 0  0 0.25 0  1 0.25 0  1 0.75 0  0.375 0 0  0.625 0 0  0.625 1 0  0.375 1 0  0 0.625 0  0 0.375 0  1 0.375 0  1 0.625 0  0.125 0 0  0.875 0 0  0 0.875 0  0.125 1 0  0.875 1 0  0 0.125 0  1 0.125 0  1 0.875 0  0.1443946775413214 0.1213187937376868 0  0.8556053224586788 0.8786812062623132 0  0.8556053224586785 0.1213187937376867 0  0.1275360334547992 0.8724639665452008 0  0.9261623581710797 0.1875 0  0.09234641934319709 0.2082689144241477 0  0.9076535806568029 0.7917310855758523 0  0.08970099689351971 0.7603836651344988 0  0.2182130526099624 0.9079579669686324 0  0.07086411995581518 0.07086411995581518 0  0.0625 1 0  0 0.9375 0  1 0.0625 0  0.9375 0 0  0.9291358800441849 0.9291358800441849 0  0.7304772975931939 0.08076335202639119 0  0.2695227024068061 0.08076335202639115 0  0.7697819974699807 0.9105968468121929 0  1 0.6875 0  1 0.3125 0  0.06784168511078095 0.2966417331842567 0  0 0.6875 0  0.1875 0 0  0.8125 0 0  0.9212459744619301 0.2681742056774029 0  0.3125 1 0  0.6875 1 0  0.922097136530977 0.07790286346902295 0  0.9261304603587264 0.7150772115644075 0  0 0.8125 0  0.07432186328509671 0.9256781367149033 0  0.06317182982585627 0.84375 0  0.8548473925302104 0.1928285354262928 0  0.2914274450692525 0.9272721924131209 0  0.6710199663399635 0.9319471281137308 0  0.9226595291420543 0.8597667107019437 0  0.0773404708579461 0.1402332892980563 0  0.8125 1 0  0.06054886616517211 0.65625 0  0.9362657027224049 0.3336129027547622 0  0.1841195715992005 0.8363784907223111 0  0.6625377124131507 0.06023416665880475 0  0.3125 0 0  0.34375 0.06016090820395464 0  0.2153846372786545 0.1270381302276244 0  0.8024953780019808 0.07187189600048093 0  0.1546395545758083 0.9367961467266345 0  0.5625 1 0  0.4375 0 0  0.4375 1 0  0.5625 0 0  0.1844766880788185 0.06724298999790632 0  0.9369725282473387 0.6419809811402504 0  0.791523351719164 0.1369023590147849 0  0.8285961364903059 0.9374018659319692 0  1 0.4375 0  0 0.4375 0  1 0.5625 0  0 0.5625 0  0 0.3125 0  1 0.8125 0  0.0625 0 0  0 0.0625 0  0 0.1875 0  1 0.1875 0  1 0.9375 0  0.9375 1 0  0.6875 0 0  0.1875 1 0  0.8126465958421825 0.8329348088176629 0  0.1550798535647612 0.1867680086445373 0  0.8631981559835366 0.06032295929500282 0  0.1449089435554358 0.7884432695884597 0  0.3538206140027237 0.9399564250283491 0  0.944997661525766 0.4151121561005554 0  0.05500233847423393 0.5848878438994446 0  0.0520912947951912 0.40625 0  0.59375 0.05063263303723638 0  0.6113142584645842 0.9411585052804305 0  0.402402637527157 0.05243074290023167 0  0.05237021982595785 0.7146869946988353 0  0.9514280734197595 0.53125 0  0.04857192658024048 0.46875 0  0.1138995451272664 0.2618291859344329 0  0.1276043399716366 0.06698080255494471 0  0.9496852823490703 0.5873315358652272 0  0.7164226875694513 0.8936714072472519 0  0.728445758907293 0.9483406189827143 0  0.05037626111865807 0.3500677784994627 0  0.9425695009311538 0.1320174568820216 0  0.4108317852857326 0.9488345682840208 0  0.5398628985995173 0.04893133705064829 0  0.46875 0.04573672429098317 0  0.4652931800096448 0.9529811055869081 0  0.53125 0.9542632757090168 0  0.8785971272885281 0.7441734326495726 0  0.8518416617605847 0.7931754903661554 0  0.04183404050302509 0.78125 0  0.7612395846848441 0.8595654412716175 0  0.2310588911243982 0.8579303197600836 0  0.04148050284378633 0.21875 0  0.9494864361787021 0.7612608042848362 0  0.9500000000000001 0.4721339993173143 0  0.04999999999999998 0.5278660006826856 0  0.8781553628189985 0.9246252444972441 0  0.8731991046476956 0.2435858407989878 0  0.09811738497342513 0.6912987895906199 0  0.78125 0.9600244726998853 0  0.09951704281279977 0.8094116423849811 0  0.1723930843372325 0.8914409560171174 0  0.21875 0.9592823984315264 0  0.8808053857873319 0.8333253975559158 0  0.8963977713581862 0.1485308906960134 0  0.9538351164349618 0.2296733193971382 0  0.9502525126806526 0.8180081280125184 0  0.2312490385075739 0.04727387874777968 0  0.2715914187620846 0.8835921407480765 0  0.8075381809024645 0.880775593205643 0  0.71875 0.03518728418751645 0  0.28125 0.03518728418751642 0  0.7646042202168328 0.04444036111707996 0  0.9023329991729737 0.03666350737326187 0  0.03401531498238862 0.15625 0  0.1188530488980251 0.1590855287670435 0  0.9585274478449393 0.2940602659505009 0  0.122777080947294 0.7293581095092172 0  0.9670375667902916 0.09375 0  0.2005134857209875 0.1810792546569654 0  0.04567406045797464 0.8878541658538743 0  0.09375 0.966869578205468 0  0.1562008719445321 0.03232788333739163 0  0.8953932105853648 0.3139420780646932 0  0.7990572522972532 0.1815363722387022 0  0.0968875242781685 0.03463409819727443 0  0.03223722036876893 0.09375 0  0.9004223587754672 0.9633108159792649 0  0.9677627796312311 0.90625 0  0.1015654613822437 0.1029847255361322 0  0.9612688796250578 0.9612688796250578 0  0 0.03125 0  0.03125 0 0  0.9558898336496962 0.04411016635030385 0  0.04144949962501476 0.9585505003749852 0  0.9068917513393455 0.6748714165270275 0  0.1368346895292699 0.830580202512584 0  0.1325215314767946 0.2232188145997174 0  0.07053058491102715 0.2523250971165124 0  0.28125 1 0  0.2618257196382527 0.9585732837283344 0  0.08628220552312613 0.8784418410901162 0  0.6885162251696433 0.09694521726220126 0  0.7451861497985837 0.1260293295250874 0  0.313422114933215 0.09491014745286984 0  0.2604190570795071 0.1249189143540631 0  0.9242490330121279 0.3761177923443456 0  0.8294827367589617 0.1534479284350518 0  0 0.28125 0  0.1085704015556412 0.3026527142683792 0  0.6454377779583714 0.9642341400769985 0  0.1735682150935896 0.1501527832362767 0  0.9118639212665761 0.2270478094042325 0  0.9675029085737417 0.7231519194735394 0  0.9540854621793986 0.6818714685662951 0  0.3411855214203015 0.9011195850022233 0  0.2203778463487443 0.08657146517086198 0  0.04103470738435357 0.04103470738435357 0  0.5692124642834736 0.9350661676969988 0  0.1143804055696223 0.9319617439078584 0  0.08871656954519293 0.3663659127109965 0  0.9630811790855398 0.168250321868886 0  0.8941478109554366 0.1077225817667272 0  0.7685953432959879 0.09339992494635127 0  0.9613334331586147 0.8673647296762501 0  0.84375 0 0  0.8276419188889859 0.03874003995670209 0  0.4987074584280061 0.9312004428379874 0  0.4999999999999999 0.07012294039149713 0  0.906353444207591 0.8962759602721756 0  0.8317000502825128 0.2255938539236174 0  0.060982293117454 0.1847248153131282 0  0.84375 1 0  0.8601163332513452 0.9625346208269469 0  0.07696867235812772 0.6190771663714262 0  0.03866375363197156 0.624370156890833 0  0.386395970129115 0.9182613855572013 0  0.59375 1 0  0.03763634871355165 0.2725691404761272 0  1 0.34375 0  0.9619513789393942 0.3638256452123659 0  0.1705891391383945 0.2215719862571997 0  0.2993345649440622 0.9643978827856838 0  0.2548390693531445 0.917543736811073 0  0.4376701674058487 0.06983678836603174 0  0.6249880952696493 0.07804203554412367 0  0.8891633930840495 0.7080603551933189 0  0 0.65625 0  0.8857454763750297 0.2783067670731572 0  1 0.65625 0  0 0.59375 0  0.9147359581367025 0.7498372322849914 0  0.34375 1 0  0.08128436453222096 0.3306040779845135 0  0.8370204413255111 0.08803482611562097 0  0.4399236117509409 0.9264634199869409 0  0.3763243110806382 0.08093997073896844 0  1 0.78125 0  0.3058827875685617 0.8943637152968825 0  0.891027260700638 0.1971556622156984 0  0.1814462944911871 0.9630031969500565 0  0.1812917788273262 0.1067749496803429 0  0.2291605611046911 0.1598957180171764 0  0.630525566101238 0.03837025329843378 0  0.03363261960646192 0.92260900189631 0  0.2960793559902691 0.1260912307633523 0  0.03663553287191564 0.8179172045954961 0  0.02996523389584273 0.8560987956667739 0  0.09880166525369549 0.8450583124835681 0  0.6923212173088138 0.150169004406393 0  0.502
[...]
<PointData  Vectors="u"> 
<DataArray  type="Float64"  Name="u"  NumberOfComponents="3" format="ascii">0.0000000000000000e+00 0.0000000000000000e+00 0.0000000000000000e+00  0.0000000000000000e+00 0.0000000000000000e+00 0.0000000000000000e+00  0.0000000000000000e+00 0.0000000000000000e+00 0.0000000000000000e+00  0.0000000000000000e+00 0.0000000000000000e+00 0.0000000000000000e+00  -9.3605002363565892e-02 -1.5566448834539413e-02 0.0000000000000000e+00  -9.2480977480674020e-02 1.2518462884445672e-05 0.0000000000000000e+00  -9.3580697766757648e-02 1.5466535608568708e-02 0.0000000000000000e+00  -9.5751320743682367e-02 3.2457946439089322e-02 0.0000000000000000e+00  -9.7671889228937228e-02 5.1279182430931644e-02 0.0000000000000000e+00  -9.7975999216878773e-02 7.0495954576865180e-02 0.0000000000000000e+00  -9.6673546863507515e-02 8.5678641699366037e-02 0.0000000000000000e+00  -9.4838300669088244e-02 9.3333815008937462e-02 0.0000000000000000e+00  -9.0444576697322920e-02 9.5842881075869177e-02 0.0000000000000000e+00  -7.9006886694018286e-02 9.7408446026435530e-02 0.0000000000000000e+00  -6.1121852381349796e-02 9.8008355385019785e-02 0.0000000000000000e+00  -4.1724856255863405e-02 9.6846143495815426e-02 0.0000000000000000e+00  -2.3787917887323463e-02 9.4528782385497126e-02 0.0000000000000000e+00  -7.7425861359829342e-03 9.2920287546276001e-02 0.0000000000000000e+00  7.8267570615939124e-03 9.2866542641035721e-02 0.0000000000000000e+00  2.3859132949618698e-02 9.4543380910201147e-02 0.0000000000000000e+00  4.1731295797895557e-02 9.6817228100296679e-02 0.0000000000000000e+00  6.1010317198876715e-02 9.8105935068293570e-02 0.0000000000000000e+00  7.9054111285214126e-02 9.7337375567420253e-02 0.0000000000000000e+00  9.0473667784316467e-02 9.5806614496374037e-02 0.0000000000000000e+00  9.4829459933410118e-02 9.3251131383342345e-02 0.0000000000000000e+00  9.6599968065777794e-02 8.5679106232472962e-02 0.0000000000000000e+00  9.8018055352029954e-02 7.0613307308768664e-02 0.0000000000000000e+00  9.7790238814930278e-02 5.1284142949759484e-02 0.0000000000000000e+00  9.5768365693112881e-02 3.2416366044474884e-02 0.0000000000000000e+00  9.3594228702618687e-02 1.5577847059100855e-02 0.0000000000000000e+00  9.2538248126499273e-02 -9.8576683863872580e-05 0.0000000000000000e+00  9.3439390396918509e-02 -1.5564590849960654e-02 0.0000000000000000e+00  9.5701152481968269e-02 -3.2498563389938749e-02 0.0000000000000000e+00  9.7604792494797588e-02 -5.1296098551734511e-02 0.0000000000000000e+00  9.7887423162317244e-02 -7.0498578724529914e-02 0.0000000000000000e+00  9.6679180284226202e-02 -8.5585347441858209e-02 0.0000000000000000e+00  9.4492613052249722e-02 -9.3062942525747344e-02 0.0000000000000000e+00  9.0115715567443702e-02 -9.5806909124642764e-02 0.0000000000000000e+00  7.9096600288774147e-02 -9.7374855937658905e-02 0.0000000000000000e+00  6.1041759521447629e-02 -9.7987040531024805e-02 0.0000000000000000e+00  4.1715922597451278e-02 -9.6842036971480971e-02 0.0000000000000000e+00  2.3796022393745092e-02 -9.4635120568443157e-02 0.0000000000000000e+00  7.8008913245530232e-03 -9.2913313929856495e-02 0.0000000000000000e+00  -7.7621049152384715e-03 -9.2844575970346177e-02 0.0000000000000000e+00  -2.3805746575575323e-02 -9.4530962840882388e-02 0.0000000000000000e+00  -4.1659538224622379e-02 -9.6844193115113344e-02 0.0000000000000000e+00  -6.1007968831843826e-02 -9.8031918158321102e-02 0.0000000000000000e+00  -7.8947399053088174e-02 -9.7157697897308395e-02 0.0000000000000000e+00  -9.0212325499984883e-02 -9.5588455448279139e-02 0.0000000000000000e+00  -9.4884386653494551e-02 -9.3036775807491007e-02 0.0000000000000000e+00  -9.6417986195708905e-02 -8.5531151424559887e-02 0.0000000000000000e+00  -9.7814020008990477e-02 -7.0511912425558806e-02 0.0000000000000000e+00  -9.7555796823924512e-02 -5.1342862807890612e-02 0.0000000000000000e+00  -9.5755718019000916e-02 -3.2445326464926864e-02 0.0000000000000000e+00  0.0000000000000000e+00 0.0000000000000000e+00 0.0000000000000000e+00  0.0000000000000000e+00 0.0000000000000000e+00 0.0000000000000000e+00  0.0000000000000000e+00 0.0000000000000000e+00 0.0000000000000000e+00  0.0000000000000000e+00 0.0000000000000000e+00 0.0000000000000000e+00  0.0000000000000000e+00 0.0000000000000000e+00 0.0000000000000000e+00  0.0000000000000000e+00 0.0000000000000000e+00 0.0000000000000000e+00  0.0000000000000000e+00 0.0000000000000000e+00 0.0000000000000000e+00  0.0000000000000000e+00 0.0000000000000000e+00 0.0000000000000000e+00  0.0000000000000000e+00 0.0000000000000000e+00 0.0000000000000000e+00  0.0000000000000000e+00 0.0000000000000000e+00 0.0000000000000000e+00  0.0000000000000000e+00 0.0000000000000000e+00 0.0000000000000000e+00  0.0000000000000000e+00 0.0000000000000000e+00 0.0000000000000000e+00  0.0000000000000000e+00 0.0000000000000000e+00 0.0000000000000000e+00  0.0000000000000000e+00 0.0000000000000000e+00 0.0000000000000000e+00  0.0000000000000000e+00 0.0000000000000000e+00 0.0000000000000000e+00  0.0000000000000000e+00 0.0000000000000000e+00 0.0000000000000000e+00  0.0000000000000000e+00 0.0000000000000000e+00 0.0000000000000000e+00  0.0000000000000000e+00 0.0000000000000000e+00 0.0000000000000000e+00  0.0000000000000000e+00 0.0000000000000000e+00 0.0000000000000000e+00  0.0000000000000000e+00 0.0000000000000000e+00 0.0000000000000000e+00  0.0000000000000000e+00 0.0000000000000000e+00 0.0000000000000000e+00  0.0000000000000000e+00 0.0000000000000000e+00 0.0000000000000000e+00  0.0000000000000000e+00 0.0000000000000000e+00 0.0000000000000000e+00  0.0000000000000000e+00 0.0000000000000000e+00 0.0000000000000000e+00  0.0000000000000000e+00 0.0000000000000000e+00 0.0000000000000000e+00  0.0000000000000000e+00 0.0000000000000000e+00 0.0000000000000000e+00  0.0000000000000000e+00 0.0000000000000000e+00 0.0000000000000000e+00  0.0000000000000000e+00 0.0000000000000000e+00 0.0000000000000000e+00  4.5634938197740942e-02 4.4354426007430926e-02 0.0000000000000000e+00  -4.5673469955431714e-02 -4.4517868986432819e-02 0.0000000000000000e+00  -4.5580013744483047e-02 4.4298714568229522e-02 0.0000000000000000e+00  4.2753565210433601e-02 -4.2845417449657676e-02 0.0000000000000000e+00  -3.2874441796211608e-02 3.5959151684288169e-02 0.0000000000000000e+00  4.3822955918519646e-02 4.5412911630973433e-02 0.0000000000000000e+00  -4.3876462052389140e-02 -4.5197213799092355e-02 0.0000000000000000e+00  4.7484690896747818e-02 -4.5426650702154660e-02 0.0000000000000000e+00  4.5897076612138370e-02 -4.5070461427733216e-02 0.0000000000000000e+00  1.8275126326139188e-02 1.8315665005246645e-02 0.0000000000000000e+00  0.0000000000000000e+00 0.0000000000000000e+00 0.0000000000000000e+00  0.0000000000000000e+00 0.0000000000000000e+00 0.0000000000000000e+00  0.0000000000000000e+00 0.0000000000000000e+00 0.0000000000000000e+00  0.0000000000000000e+00 0.0000000000000000e+00 0.0000000000000000e+00  -1.8368181810596660e-02 -1.8266709792163469e-02 0.0000000000000000e+00  -4.0849443915153154e-02 4.7432892387767184e-02 0.0000000000000000e+00  4.0943197323832760e-02 4.7510992967279383e-02 0.0000000000000000e+00  -4.5216341261486478e-02 -4.5737859443261884e-02 0.0000000000000000e+00  0.0000000000000000e+00 0.0000000000000000e+00 0.0000000000000000e+00  0.0000000000000000e+00 0.0000000000000000e+00 0.0000000000000000e+00  4.3973305060406288e-02 3.2866604904226562e-02 0.0000000000000000e+00  0.0000000000000000e+00 0.0000000000000000e+00 0.0000000000000000e+00  0.0000000000000000e+00 0.0000000000000000e+00 0.0000000000000000e+00  0.0000000000000000e+00 0.0000000000000000e+00 0.0000000000000000e+00  -4.6075596423487283e-02 3.9883259300475302e-02 0.0000000000000000e+00  0.0000000000000000e+00 0.0000000000000000e+00 0.0000000000000000e+00  0.0000000000000000e+00 0.0000000000000000e+00 0.0000000000000000e+00  -2.0841604783134071e-02 2.0829971350897491e-02 0.0000000000000000e+00  -4.5834368425074823e-02 -3.6715577090918813e-02 0.0000000000000000e+00  0.0000000000000000e+00 0.0000000000000000e+00 0.0000000000000000e+00  1.9674066094895745e-02 -1.9695673199302686e-02 0.0000000000000000e+00  2.5222389340967325e-02 -2.8921511986718381e-02 0.0000000000000000e+00  -6.2795890019221909e-02 6.3158359971532338e-02 0.0000000000000000e+00  3.5603221403680406e-02 -4.6150127792271109e-02 0.0000000000000000e+00  -2.9911765460429066e-02 -4.8583632387542562e-02 0.0000000000000000e+00  -2.8938855100745467e-02 -3.2231049854378878e-02 0.0000000000000000e+00  2.9064419712963380e-02 3.1969221102820390e-02 0.0000000000000000e+00  0.0000000000000000e+00 0.0000000000000000e+00 0.0000000000000000e+00  4.4969333563972584e-02 -2.5028150694163458e-02 0.0000000000000000e+00  -4.5918537385753903e-02 2.7621973561345582e-02 0.0000000000000000e+00  6.7111473458509485e-02 -6.7120618896490944e-02 0.0000000000000000e+00  -2.5679080827346119e-02 4.3990041292294099e-02 0.0000000000000000e+00  0.0000000000000000e+00 0.0000000000000000e+00 0.0000000000000000e+00  2.4880414308085498e-02 4.4669428133815969e-02 0.0000000000000000e+00  6.0199629807675355e-02 6.0518859490503209e-02 0.0000000000000000e+00  -3.5697346779680596e-02 3.3038578390396589e-02 0.0000000000000000e+00  2.8783992748702050e-02 -2.5094011758172052e-02 0.0000000000000000e+00  0.0000000000000000e+00 0.0000000000000000e+00 0.0000000000000000e+00  0.0000000000000000e+00 0.0000000000000000e+00 0.0000000000000000e+00  0.0000000000000000e+00 0.0000000000000000e+00 0.0000000000000000e+00  0.0000000000000000e+00 0.0000000000000000e+00 0.0000000000000000e+00  3.2734768109426084e-02 2.9691381670941971e-02 0.0000000000000000e+00  -4.8521768240819954e-02 -2.4285320202111889e-02 0.0000000000000000e+00  -6.3021156437181911e-02 6.3001704026249133e-02 0.0000000000000000e+00  -3.0007008271584878e-02 -2.6466744157889337e-02 0.0000000000000000e+00  0.0000000000000000e+00 0.0000000000000000e+00 0.0000000000000000e+00  0.0000000000000000e+00 0.0000000000000000e+00 0.0000000000000000e+00  0.0000000000000000e+00 0.0000000000000000e+00 0.0000000000000000e+00  0.0000000000000000e+00 0.0000000000000000e+00 0.0000000000000000e+00  0.0000000000000000e+00 0.0000000000000000e+00 0.0000000000000000e+00  0.0000000000000000e+00 0.0000000000000000e+00 0.0000000000000000e+00  0.0000000000000000e+00 0.0000000000000000e+00 0.0000000000000000e+00  0.0000000000000000e+00 0.0000000000000000e+00 0.0000000000000000e+00  0.0000000000000000e+00 0.0000000000000000e+00 0.0000000000000000e+00  0.0000000000000000e+00 0.0000000000000000e+00 0.0000000000000000e+00  0.0000000000000000e+00 0.0000000000000000e+00 0.0000000000000000e+00  0.0000000000000000e+00 0.0000000000000000e+00 0.0000000000000000e+00  0.0000000000000000e+00 0.0000000000000000e+00 0.0000000000000000e+00  0.0000000000000000e+00 0.0000000000000000e+00 0.0000000000000000e+00  -6.9253718033717465e-02 -6.9153127765281888e-02 0.0000000000000000e+00  6.5083712734243723e-02 6.5324896026379572e-02 0.0000000000000000e+00  -2.6104965580279596e-02 2.2506577733993241e-02 0.0000000000000000e+00  6.7135864116397631e-02 -6.6682462581738960e-02 0.0000000000000000e+00  2.3664563196450914e-02 -4.5777491774531220e-02 0.0000000000000000e+00  -4.7154696060969996e-02 1.3607629185773002e-02 0.0000000000000000e+00  4.7220144668949041e-02 -1.3501558332888639e-02 0.0000000000000000e+00  4.4103307186418431e-02 1.4109348387206127e-02 0.0000000000000000e+00  -1.3593766259465104e-02 4.2861054280520512e-02 0.0000000000000000e+00  -1.8525855280015064e-02 -4.8330721919671818e-02 0.0000000000000000e+00  1.4605856705891771e-02 4.4154166630263780e-02 0.0000000000000000e+00  3.2591853033899887e-02 -2.6260095009645577e-02 0.0000000000000000e+00  -4.3811093964425597e-02 -4.6046284202684862e-03 0.0000000000000000e+00  4.3825585073560887e-02 4.5268302339153904e-03 0.0000000000000000e+00  6.4307681564579999e-02 5.6881456104138056e-02 0.0000000000000000e+00  2.7115042664675390e-02 2.3994140828605667e-02 0.0000000000000000e+00  -4.3022032616099111e-02 -1.2657809038572995e-02 0.0000000000000000e+00  -5.2427001078318103e-02 -6.5182761791516927e-02 0.0000000000000000e+00  -2.6475651247229406e-02 -3.0864791587969249e-02 0.0000000000000000e+00  3.8043204224658220e-02 2.0244268218367320e-02 0.0000000000000000e+00  -2.1046424201593198e-02 2.4607007170347438e-02 0.0000000000000000e+00  1.3128944157419197e-02 -4.3625402411416103e-02 0.0000000000000000e+00  -5.8918688682057354e-03 4.3936164577033046e-02 0.0000000000000000e+00  4.1803633051518468e-03 4.1199432949074320e-02 0.0000000000000000e+00  4.7972979404919715e-03 -4.2391633158525920e-02 0.0000000000000000e+00  -4.2604919467785270e-03 -4.1203931673233274e-02 0.0000000000000000e+00  -6.6848028864050391e-02 -6.0313267795923373e-02 0.0000000000000000e+00  -6.7336642164416399e-02 -6.7093941742368254e-02 0.0000000000000000e+00  2.0915964560681132e-02 -2.2184492668233951e-02 0.0000000000000000e+00  -6.8243569137045851e-02 -7.1994626624053953e-02 0.0000000000000000e+00  6.8071470180937246e-02 -7.0680981756480563e-02 0.0000000000000000e+00  2.0783170891316208e-02 2.1950187877439933e-02 0.0000000000000000e+00  -2.6858388196286082e-02 -2.6585214721667704e-02 0.0000000000000000e+00  -4.5234697591224275e-02 4.0716089750800826e-03 0.0000000000000000e+00  4.5271083118929925e-02 -4.0122197232710897e-03 0.0000000000000000e+00  -2.8952696740734050e-02 -2.6302446742702594e-02 0.0000000000000000e+00  -6.6731903989728031e-02 6.2444047930508631e-02 0.0000000000000000e+00  6.5585763189497437e-02 -4.6020345667579794e-02 0.0000000000000000e+00  -2.1249599484025716e-02 -1.9988608711352034e-02 0.0000000000000000e+00  4.4164108008418440e-02 -4.6617780819384967e-02 0.0000000000000000e+00  4.7327132393769844e-02 -4.4880903938106072e-02 0.0000000000000000e+00  2.1571055709373205e-02 -2.0379004426737006e-02 0.0000000000000000e+00  -4.7928780758750004e-02 -4.9788290810056687e-02 0.0000000000000000e+00  -3.9193494206158835e-02 4.1629803273010732e-02 0.0000000000000000e+00  -2.3812531200371127e-02 2.4385509419996777e-02 0.0000000000000000e+00  -2.1924594153268084e-02 -2.4969558117800859e-02 0.0000000000000000e+00  2.4925874265859866e-02 2.4514525411275131e-02 0.0000000000000000e+00  5.7906522241607951e-02 -6.8079838763858994e-02 0.0000000000000000e+00  -5.4121036741966957e-02 -5.2527881368853252e-02 0.0000000000000000e+00  -1.7883913583897005e-02 2.1666246786576249e-02 0.0000000000000000e+00  1.7885551978816826e-02 2.1632556553203067e-02 0.0000000000000000e+00  -2.3495105173081253e-02 2.3367284696809893e-02 0.0000000000000000e+00  -1.4274697153365594e-02 1.1711324206734054e-02 0.0000000000000000e+00  1.3790939839153634e-02 1.6762431674196280e-02 0.0000000000000000e+00  4.6425051645126544e-02 4.8392376151890189e-02 0.0000000000000000e+00  -2.6735393108305718e-02 2.0408805446740105e-02 0.0000000000000000e+00  7.1354353320427430e-02 -6.0851237606783876e-02 0.0000000000000000e+00  -1.0336267541271479e-02 1.2740265912839924e-02 0.0000000000000000e+00  7.6876957860050069e-02 7.7257581440490095e-02 0.0000000000000000e+00  1.5460850307709002e-02 -1.8518567807052990e-02 0.0000000000000000e+00  1.2703571743238967e-02 -1.0371309185354392e-02 0.0000000000000000e+00  1.5915182581036080e-02 1.3010170756816245e-02 0.0000000000000000e+00  -7.0884169707617656e-02 4.8356402084368762e-02 0.0000000000000000e+00  -7.7108731485110882e-02 7.7626332253897687e-02 0.0000000000000000e+00  1.3464867308537267e-02 1.1031104326838858e-02 0.0000000000000000e+00  1.0107263063327579e-02 1.2341556603109561e-02 0.0000000000000000e+00  -1.4324208816818779e-02 -1.1871182177105378e-02 0.0000000000000000e+00  -1.0004583861145730e-02 -1.2266298724187458e-02 0.0000000000000000e+00  3.0982008292318872e-02 3.1168250799162436e-02 0.0000000000000000e+00  -7.8728691055814752e-03 -7.8627491862644956e-03 0.0000000000000000e+00  0.0000000000000000e+00 0.0000000000000000e+00 0.0000000000000000e+00  0.0000000000000000e+00 0.0000000000000000e+00 0.0000000000000000e+00  -9.2955162393598047e-03 9.2769088828445982e-03 0.0000000000000000e+00  8.5512986988516733e-03 -8.4739828543750114e-03 0.0000000000000000e+00  -6.5558573252606750e-02 -4.1635543660642843e-02 0.0000000000000000e+00  5.4555340101827596e-02 -5.5680478102838521e-02 0.0000000000000000e+00  6.4589608441191229e-02 6.3092269886768762e-02 0.0000000000000000e+00  3.9165821825577887e-02 3.6296715160749643e-02 0.0000000000000000e+00  0.0000000000000000e+00 0.0000000000000000e+00 0.0000000000000000e+00  2.1667972413986394e-02 -2.3955211759510785e-02 0.0000000000000000e+00  2.9557715275639506e-02 -3.1488631378140737e-02 0.0000000000000000e+00  -4.5148450290703308e-02 6.5457000070315019e-02 0.0000000000000000e+00  -6.2559327651404206e-02 6.9137322599836695e-02 0.0000000000000000e+00  4.3986386152081947e-02 6.4382408459219109e-02 0.0000000000000000e+00  6.2076891078459047e-02 6.9776403731123218e-02 0.0000000000000000e+00  -6.0929781340154400e-02 2.6147569111860794e-02 0.0000000000000000e+00  -6.0550067198229217e-02 6.0204781469816629e-02 0.0000000000000000e+00  0.0000000000000000e+00 0.0000000000000000e+00 0.0000000000000000e+00  7.0909490442172832e-02 5.1598521475528847e-02 0.0000000000000000e+00  -1.4038404811018109e-02 -2.7283997797989745e-02 0.0000000000000000e+00  6.0453012691301954e-02 5.9887464272048406e-02 0.0000000000000000e+00  -4.4611027799713182e-02 4.4520259748663971e-02 0.0000000000000000e+00  -1.9736900981917035e-02 -1.6690628373419652e-02 0.0000000000000000e+00  -3.1674188964711913e-02 -2.1161663340792048e-02 0.0000000000000000e+00  4.1387982438482657e-02 -7.3069886104080217e-02 0.0000000000000000e+00  4.3462648859044967e-02 4.2821509349798670e-02 0.0000000000000000e+00  8.4613878508879754e-03 8.4296679580077305e-03 0.0000000000000000e+00  -1.3192195963074005e-02 -5.7078793269356387e-02 0.0000000000000000e+00  2.5585916966364444e-02 -2.2983914652310117e-02 0.0000000000000000e+00  6.9842490715596672e-02 3.2559767366539864e-02 0.0000000000000000e+00  -1.5520325067292236e-02 1.8365823057993440e-02 0.0000000000000000e+00  -3.2899742860334112e-02 3.3005649905384689e-02 0.0000000000000000e+00  -4.7071248041538442e-02 4.7987039772206863e-02 0.0000000000000000e+00  -1.4322108724278394e-02 -1.7482844835330361e-02 0.0000000000000000e+00  0.0000000000000000e+00 0.0000000000000000e+00 0.0000000000000000e+00  -1.9349800349458185e-02 1.6487873468432855e-02 0.0000000000000000e+00  2.9756385741852115e-04 -6.2934029918563145e-02 0.0000000000000000e+00  4.4082957888645542e-05 6.4184812462990876e-02 0.0000000000000000e+00  -2.9006464354335411e-02 -2.9680702274283034e-02 0.0000000000000000e+00  -8.0111287732634956e-02 7.7527877403398976e-02 0.0000000000000000e+00  2.7027516343353295e-02 3.0219136800028936e-02 0.0000000000000000e+00  0.0000000000000000e+00 0.0000000000000000e+00 0.0000000000000000e+00  -1.7381600419092862e-02 -1.4257505964195227e-02 0.0000000000000000e+00  6.2546578754250029e-02 -2.5720654090872711e-02 0.0000000000000000e+00  3.0802997957070297e-02 -1.3411168925460118e-02 0.0000000000000000e+00  2.6343456008160480e-02 -6.7098056962646285e-02 0.0000000000000000e+00  0.0000000000000000e+00 0.0000000000000000e+00 0.0000000000000000e+00  2.2494352885503485e-02 1.9390873547318926e-02 0.0000000000000000e+00  0.0000000000000000e+00 0.0000000000000000e+00 0.0000000000000000e+00  -2.9620616139152539e-02 1.4202621419359395e-02 0.0000000000000000e+00  7.9899665251926294e-02 7.7917231030577697e-02 0.0000000000000000e+00  1.7419347153445321e-02 -2.3150990852205927e-02 0.0000000000000000e+00  4.2001852639833838e-02 -4.6123220993902363e-02 0.0000000000000000e+00  1.2889978933949213e-02 6.1959753206969878e-02 0.0000000000000000e+00  -2.7114638102628468e-02 6.2679484912804923e-02 0.0000000000000000e+00  -6.9597464363679334e-02 -5.3814313743207179e-02 0.0000000000000000e+00  0.0000000000000000e+00 0.0000000000000000e+00 0.0000000000000000e+00  -6.8285847279221032e-02 5.6425264883043419e-02 0.0000000000000000e+00  0.0000000000000000e+00 0.0000000000000000e+00 0.0000000000000000e+00  0.0000000000000000e+00 0.0000000000000000e+00 0.0000000000000000e+00  -4.6788921061467127e-02 -4