<?xml version="1.0"?>
<VTKFile type="UnstructuredGrid"  version="0.1"  >
<UnstructuredGrid>
<Piece  NumberOfPoints="1109" NumberOfCells="1972">
<Points>
<DataArray  type="Float64"  NumberOfComponents="3"  format="ascii">0 1 0  0 0 0  1 0 0  1 1 0  0.8968458805257912 0.5501332934257217 0  0.9 0.5 0  0.8968458805257911 0.4498667065742781 0  0.8874332644514524 0.4005240451340579 0  0.8719105943553006 0.3527501789261288 0  0.8505226720175453 0.3072985303593135 0  0.823606797749979 0.2648858990830106 0  0.7915874509685645 0.2261811576285244 0  0.7549695958994758 0.1917947028896841 0  0.7143307179915988 0.162268829799194 0  0.6703117166260287 0.138069179013592 0  0.6236067977499788 0.1195773934819385 0  0.5749525258342897 0.1070850997085245 0  0.5251162078117251 0.1007893086286913 0  0.4748837921882747 0.1007893086286913 0  0.4250474741657101 0.1070850997085245 0  0.376393202250021 0.1195773934819386 0  0.3296882833739712 0.1380691790135921 0  0.2856692820084015 0.1622688297991939 0  0.2450304041005242 0.1917947028896843 0  0.2084125490314353 0.2261811576285246 0  0.1763932022500209 0.2648858990830109 0  0.1494773279824546 0.3072985303593139 0  0.1280894056446994 0.3527501789261288 0  0.1125667355485475 0.4005240451340581 0  0.1031541194742088 0.4498667065742783 0  0.09999999999999998 0.5 0  0.1031541194742089 0.5501332934257218 0  0.1125667355485476 0.5994759548659421 0  0.1280894056446995 0.6472498210738713 0  0.1494773279824546 0.6927014696406861 0  0.176393202250021 0.7351141009169893 0  0.2084125490314355 0.7738188423714756 0  0.2450304041005241 0.8082052971103157 0  0.2856692820084012 0.837731170200806 0  0.3296882833739709 0.8619308209864078 0  0.3763932022500212 0.8804226065180615 0  0.4250474741657101 0.8929149002914756 0  0.4748837921882746 0.8992106913713087 0  0.5251162078117254 0.8992106913713087 0  0.5749525258342899 0.8929149002914755 0  0.623606797749979 0.8804226065180614 0  0.6703117166260291 0.8619308209864078 0  0.7143307179915986 0.8377311702008061 0  0.754969595899476 0.8082052971103157 0  0.7915874509685646 0.7738188423714755 0  0.823606797749979 0.7351141009169893 0  0.8505226720175454 0.6927014696406861 0  0.8719105943553006 0.6472498210738712 0  0.8874332644514524 0.599475954865942 0  0.5 0 0  0 0.5 0  1 0.5 0  0.5 1 0  0.25 0 0  0.75 0 0  0 0.75 0  0 0.25 0  1 0.25 0  1 0.75 0  0.25 1 0  0.75 1 0  0.375 0 0  0.625 0 0  0 0.625 0  0 0.375 0  1 0.375 0  1 0.625 0  0.375 1 0  0.625 1 0  0.125 0 0  0.875 0 0  0 0.875 0  0.125 1 0  0.875 1 0  0 0.125 0  1 0.125 0  1 0.875 0  0.1443946775413214 0.1213187937376868 0  0.8556053224586788 0.8786812062623132 0  0.8556053224586785 0.1213187937376867 0  0.1275360334547992 0.8724639665452008 0  0.9261623581710797 0.1875 0  0.09234641934319709 0.2082689144241477 0  0.9076535806568029 0.7917310855758523 0  0.08970099689351971 0.7603836651344988 0  0.2182130526099624 0.9079579669686324 0  0.07086411995581518 0.07086411995581518 0  0.0625 1 0  0 0.9375 0  1 0.0625 0  0.9375 0 0  0.9291358800441849 0.9291358800441849 0  0.7304772975931939 0.08076335202639119 0  0.2695227024068061 0.08076335202639115 0  0.7697819974699807 0.9105968468121929 0  1 0.6875 0  1 0.3125 0  0.06784168511078095 0.2966417331842567 0  0 0.6875 0  0.1875 0 0  0.8125 0 0  0.9212459744619301 0.2681742056774029 0  0.6875 1 0  0.3125 1 0  0.922097136530977 0.07790286346902295 0  0.9261304603587264 0.7150772115644075 0  0 0.8125 0  0.07432186328509671 0.9256781367149033 0  0.06317182982585627 0.84375 0  0.8548473925302104 0.1928285354262928 0  0.6710199663399635 0.9319471281137308 0  0.2914274450692525 0.9272721924131209 0  0.9226595291420543 0.8597667107019437 0  0.0773404708579461 0.1402332892980563 0  0.8125 1 0  0.06054886616517211 0.65625 0  0.9362657027224049 0.3336129027547622 0  0.1841195715992005 0.8363784907223111 0  0.6625377124131507 0.06023416665880475 0  0.3125 0 0  0.34375 0.06016090820395464 0  0.2153846372786545 0.1270381302276244 0  0.8024953780019808 0.07187189600048093 0  0.1546395545758083 0.9367961467266345 0  0.5625 1 0  0.4375 0 0  0.4375 1 0  0.5625 0 0  0.1844766880788185 0.06724298999790632 0  0.9369725282473387 0.6419809811402504 0  0.791523351719164 0.1369023590147849 0  0.8285961364903059 0.9374018659319692 0  1 0.4375 0  0 0.4375 0  1 0.5625 0  0 0.5625 0  0 0.3125 0  1 0.8125 0  0.0625 0 0  0 0.0625 0  0 0.1875 0  1 0.1875 0  1 0.9375 0  0.9375 1 0  0.6875 0 0  0.1875 1 0  0.8126465958421825 0.8329348088176629 0  0.1550798535647612 0.1867680086445373 0  0.8631981559835366 0.06032295929500282 0  0.1449089435554358 0.7884432695884597 0  0.3538206140027237 0.9399564250283491 0  0.944997661525766 0.4151121561005554 0  0.05500233847423393 0.5848878438994446 0  0.0520912947951912 0.40625 0  0.59375 0.05063263303723638 0  0.6113142584645842 0.9411585052804305 0  0.402402637527157 0.05243074290023167 0  0.05237021982595785 0.7146869946988353 0  0.9514280734197595 0.53125 0  0.04857192658024048 0.46875 0  0.1138995451272664 0.2618291859344329 0  0.1276043399716366 0.06698080255494471 0  0.9496852823490703 0.5873315358652272 0  0.7164226875694513 0.8936714072472519 0  0.728445758907293 0.9483406189827143 0  0.05037626111865807 0.3500677784994627 0  0.9425695009311538 0.1320174568820216 0  0.4108317852857326 0.9488345682840208 0  0.5398628985995173 0.04893133705064829 0  0.46875 0.04573672429098317 0  0.4652931800096448 0.9529811055869081 0  0.53125 0.9542632757090168 0  0.8785971272885281 0.7441734326495726 0  0.8518416617605847 0.7931754903661554 0  0.04183404050302509 0.78125 0  0.7612395846848441 0.8595654412716175 0  0.2310588911243982 0.8579303197600836 0  0.04148050284378633 0.21875 0  0.9494864361787021 0.7612608042848362 0  0.9500000000000001 0.4721339993173143 0  0.04999999999999998 0.5278660006826856 0  0.8781553628189985 0.9246252444972441 0  0.8731991046476956 0.2435858407989878 0  0.09811738497342513 0.6912987895906199 0  0.78125 0.9600244726998853 0  0.09951704281279977 0.8094116423849811 0  0.1723930843372325 0.8914409560171174 0  0.21875 0.9592823984315264 0  0.8808053857873319 0.8333253975559158 0  0.8963977713581862 0.1485308906960134 0  0.9538351164349618 0.2296733193971382 0  0.9502525126806526 0.8180081280125184 0  0.2312490385075739 0.04727387874777968 0  0.2715914187620846 0.8835921407480765 0  0.8075381809024645 0.880775593205643 0  0.71875 0.03518728418751645 0  0.28125 0.03518728418751642 0  0.7646042202168328 0.04444036111707996 0  0.9023329991729737 0.03666350737326187 0  0.03401531498238862 0.15625 0  0.1188530488980251 0.1590855287670435 0  0.9585274478449393 0.2940602659505009 0  0.122777080947294 0.7293581095092172 0  0.9670375667902916 0.09375 0  0.2005134857209875 0.1810792546569654 0  0.04567406045797464 0.8878541658538743 0  0.09375 0.966869578205468 0  0.1562008719445321 0.03232788333739163 0  0.8953932105853648 0.3139420780646932 0  0.7990572522972532 0.1815363722387022 0  0.0968875242781685 0.03463409819727443 0  0.03223722036876893 0.09375 0  0.9004223587754672 0.9633108159792649 0  0.9677627796312311 0.90625 0  0.1015654613822437 0.1029847255361322 0  0.9612688796250578 0.9612688796250578 0  0 0.03125 0  0.03125 0 0  0.9558898336496962 0.04411016635030385 0  0.04144949962501476 0.9585505003749852 0  0.9068917513393455 0.6748714165270275 0  0.1368346895292699 0.830580202512584 0  0.1325215314767946 0.2232188145997174 0  0.07053058491102715 0.2523250971165124 0  0.28125 1 0  0.2618257196382527 0.9585732837283344 0  0.08628220552312613 0.8784418410901162 0  0.6885162251696433 0.09694521726220126 0  0.7451861497985837 0.1260293295250874 0  0.313422114933215 0.09491014745286984 0  0.2604190570795071 0.1249189143540631 0  0.9242490330121279 0.3761177923443456 0  0.8294827367589617 0.1534479284350518 0  0 0.28125 0  0.1085704015556412 0.3026527142683792 0  0.6454377779583714 0.9642341400769985 0  0.1735682150935896 0.1501527832362767 0  0.9118639212665761 0.2270478094042325 0  0.9675029085737417 0.7231519194735394 0  0.9540854621793986 0.6818714685662951 0  0.3411855214203015 0.9011195850022233 0  0.2203778463487443 0.08657146517086198 0  0.04103470738435357 0.04103470738435357 0  0.5692124642834736 0.9350661676969988 0  0.1143804055696223 0.9319617439078584 0  0.08871656954519293 0.3663659127109965 0  0.9630811790855398 0.168250321868886 0  0.8941478109554366 0.1077225817667272 0  0.7685953432959879 0.09339992494635127 0  0.9613334331586147 0.8673647296762501 0  0.84375 0 0  0.8276419188889859 0.03874003995670209 0  0.4987074584280061 0.9312004428379874 0  0.4999999999999999 0.07012294039149713 0  0.906353444207591 0.8962759602721756 0  0.8317000502825128 0.2255938539236174 0  0.060982293117454 0.1847248153131282 0  0.84375 1 0  0.8601163332513452 0.9625346208269469 0  0.07696867235812772 0.6190771663714262 0  0.03866375363197156 0.624370156890833 0  0.386395970129115 0.9182613855572013 0  0.59375 1 0  0.03763634871355165 0.2725691404761272 0  1 0.34375 0  0.9619513789393942 0.3638256452123659 0  0.1705891391383945 0.2215719862571997 0  0.2993345649440622 0.9643978827856838 0  0.2548390693531445 0.917543736811073 0  0.4376701674058487 0.06983678836603174 0  0.6249880952696493 0.07804203554412367 0  0.8891633930840495 0.7080603551933189 0  0 0.65625 0  0.8857454763750297 0.2783067670731572 0  1 0.65625 0  0 0.59375 0  0.9147359581367025 0.7498372322849914 0  0.34375 1 0  0.08128436453222096 0.3306040779845135 0  0.8370204413255111 0.08803482611562097 0  0.4399236117509409 0.9264634199869409 0  0.3763243110806382 0.08093997073896844 0  1 0.78125 0  0.3058827875685617 0.8943637152968825 0  0.891027260700638 0.1971556622156984 0  0.1814462944911871 0.9630031969500565 0  0.1812917788273262 0.1067749496803429 0  0.2291605611046911 0.1598957180171764 0  0.630525566101238 0.03837025329843378 0  0.03363261960646192 0.92260900189631 0  0.2960793559902691 0.1260912307633523 0  0.03663553287191564 0.8179172045954961 0  0.02996523389584273 0.8560987956667739 0  0.09880166525369549 0.8450583124835681 0  0.6923212173088138 0.150169004406393 0  0.502
[...]
<PointData  Vectors="u"> 
<DataArray  type="Float64"  Name="u"  NumberOfComponents="3" format="ascii">0.0000000000000000e+00 0.0000000000000000e+00 0.0000000000000000e+00  0.0000000000000000e+00 0.0000000000000000e+00 0.0000000000000000e+00  0.0000000000000000e+00 0.0000000000000000e+00 0.0000000000000000e+00  0.0000000000000000e+00 0.0000000000000000e+00 0.0000000000000000e+00  -5.7974991796468721e-02 -1.0532573139334504e-02 0.0000000000000000e+00  -5.7737320881946226e-02 -3.7492006431597543e-05 0.0000000000000000e+00  -5.7945083550369821e-02 1.0517360579551513e-02 0.0000000000000000e+00  -5.7796070901573529e-02 2.1502343928273434e-02 0.0000000000000000e+00  -5.6732240194203448e-02 3.2488306625547768e-02 0.0000000000000000e+00  -5.4752268734621620e-02 4.1758323681314796e-02 0.0000000000000000e+00  -5.2690310660811243e-02 4.7556155653634948e-02 0.0000000000000000e+00  -5.1098500541990916e-02 5.0381109907398101e-02 0.0000000000000000e+00  -4.9269670903510067e-02 5.1851608814363175e-02 0.0000000000000000e+00  -4.5177890358899186e-02 5.3658739411075358e-02 0.0000000000000000e+00  -3.7522143274408004e-02 5.5779446531592974e-02 0.0000000000000000e+00  -2.7091786335550126e-02 5.7392599582757622e-02 0.0000000000000000e+00  -1.6039259566471540e-02 5.7886467621039689e-02 0.0000000000000000e+00  -5.3124808815775077e-03 5.7929154475115860e-02 0.0000000000000000e+00  5.3413074151138825e-03 5.7877807249232215e-02 0.0000000000000000e+00  1.6044528673517824e-02 5.7897951646607687e-02 0.0000000000000000e+00  2.7098977778372450e-02 5.7378051342473285e-02 0.0000000000000000e+00  3.7442427694931946e-02 5.5853636629040221e-02 0.0000000000000000e+00  4.5184063369547549e-02 5.3624371569130434e-02 0.0000000000000000e+00  4.9311991711190085e-02 5.1818759599371267e-02 0.0000000000000000e+00  5.1100306842202271e-02 5.0348759430761184e-02 0.0000000000000000e+00  5.2642324869875211e-02 4.7627799725587318e-02 0.0000000000000000e+00  5.4774901540679238e-02 4.1818876296043139e-02 0.0000000000000000e+00  5.6810695893062577e-02 3.2513802081614591e-02 0.0000000000000000e+00  5.7803186340005613e-02 2.1489814517067482e-02 0.0000000000000000e+00  5.7958442175426235e-02 1.0573605407265319e-02 0.0000000000000000e+00  5.7783207939073988e-02 -9.5276652295170624e-05 0.0000000000000000e+00  5.7831679715120078e-02 -1.0585477685110299e-02 0.0000000000000000e+00  5.7752430517129846e-02 -2.1496896000360793e-02 0.0000000000000000e+00  5.6686038862919043e-02 -3.2484924463542848e-02 0.0000000000000000e+00  5.4706919586660338e-02 -4.1729212030337963e-02 0.0000000000000000e+00  5.2683779694602070e-02 -4.7529707566891725e-02 0.0000000000000000e+00  5.0947434458392213e-02 -5.0292435161373064e-02 0.0000000000000000e+00  4.9131626887076049e-02 -5.1835887792915154e-02 0.0000000000000000e+00  4.5236737614196172e-02 -5.3632268301268715e-02 0.0000000000000000e+00  3.7476370311152640e-02 -5.5769556741264173e-02 0.0000000000000000e+00  2.7056793273756527e-02 -5.7389632450430147e-02 0.0000000000000000e+00  1.6023625007630379e-02 -5.7978649905559315e-02 0.0000000000000000e+00  5.3268923693677358e-03 -5.7923041959630710e-02 0.0000000000000000e+00  -5.3404728872799559e-03 -5.7865234327748170e-02 0.0000000000000000e+00  -1.6037656969769842e-02 -5.7892705795175643e-02 0.0000000000000000e+00  -2.7025639901390744e-02 -5.7402657534651444e-02 0.0000000000000000e+00  -3.7387188806906342e-02 -5.5803592840666737e-02 0.0000000000000000e+00  -4.5231199872822245e-02 -5.3502008699555452e-02 0.0000000000000000e+00  -4.9197171105222121e-02 -5.1715392779814122e-02 0.0000000000000000e+00  -5.1139683267955802e-02 -5.0241994479765684e-02 0.0000000000000000e+00  -5.2555119721343024e-02 -4.7547560142882334e-02 0.0000000000000000e+00  -5.4669096442712700e-02 -4.1755597733046823e-02 0.0000000000000000e+00  -5.6657180598324183e-02 -3.2492570605687367e-02 0.0000000000000000e+00  -5.7785249135127711e-02 -2.1488851699005523e-02 0.0000000000000000e+00  0.0000000000000000e+00 0.0000000000000000e+00 0.0000000000000000e+00  0.0000000000000000e+00 0.0000000000000000e+00 0.0000000000000000e+00  0.0000000000000000e+00 0.0000000000000000e+00 0.0000000000000000e+00  0.0000000000000000e+00 0.0000000000000000e+00 0.0000000000000000e+00  0.0000000000000000e+00 0.0000000000000000e+00 0.0000000000000000e+00  0.0000000000000000e+00 0.0000000000000000e+00 0.0000000000000000e+00  0.0000000000000000e+00 0.0000000000000000e+00 0.0000000000000000e+00  0.0000000000000000e+00 0.0000000000000000e+00 0.0000000000000000e+00  0.0000000000000000e+00 0.0000000000000000e+00 0.0000000000000000e+00  0.0000000000000000e+00 0.0000000000000000e+00 0.0000000000000000e+00  0.0000000000000000e+00 0.0000000000000000e+00 0.0000000000000000e+00  0.0000000000000000e+00 0.0000000000000000e+00 0.0000000000000000e+00  0.0000000000000000e+00 0.0000000000000000e+00 0.0000000000000000e+00  0.0000000000000000e+00 0.0000000000000000e+00 0.0000000000000000e+00  0.0000000000000000e+00 0.0000000000000000e+00 0.0000000000000000e+00  0.0000000000000000e+00 0.0000000000000000e+00 0.0000000000000000e+00  0.0000000000000000e+00 0.0000000000000000e+00 0.0000000000000000e+00  0.0000000000000000e+00 0.0000000000000000e+00 0.0000000000000000e+00  0.0000000000000000e+00 0.0000000000000000e+00 0.0000000000000000e+00  0.0000000000000000e+00 0.0000000000000000e+00 0.0000000000000000e+00  0.0000000000000000e+00 0.0000000000000000e+00 0.0000000000000000e+00  0.0000000000000000e+00 0.0000000000000000e+00 0.0000000000000000e+00  0.0000000000000000e+00 0.0000000000000000e+00 0.0000000000000000e+00  0.0000000000000000e+00 0.0000000000000000e+00 0.0000000000000000e+00  0.0000000000000000e+00 0.0000000000000000e+00 0.0000000000000000e+00  0.0000000000000000e+00 0.0000000000000000e+00 0.0000000000000000e+00  0.0000000000000000e+00 0.0000000000000000e+00 0.0000000000000000e+00  0.0000000000000000e+00 0.0000000000000000e+00 0.0000000000000000e+00  2.4709548822452135e-02 2.4033803198112089e-02 0.0000000000000000e+00  -2.4710242479681711e-02 -2.4110952118242768e-02 0.0000000000000000e+00  -2.4673850631384043e-02 2.4003097589248436e-02 0.0000000000000000e+00  2.3133494468652368e-02 -2.3179562428918582e-02 0.0000000000000000e+00  -1.8015179116366863e-02 2.0056696052197783e-02 0.0000000000000000e+00  2.3956244807445431e-02 2.5414530251414279e-02 0.0000000000000000e+00  -2.3972469886738436e-02 -2.5288927711842605e-02 0.0000000000000000e+00  2.6056993106716209e-02 -2.6120489852767072e-02 0.0000000000000000e+00  2.5894159574424713e-02 -2.4658666834110672e-02 0.0000000000000000e+00  9.9123859730299389e-03 9.9202842126781664e-03 0.0000000000000000e+00  0.0000000000000000e+00 0.0000000000000000e+00 0.0000000000000000e+00  0.0000000000000000e+00 0.0000000000000000e+00 0.0000000000000000e+00  0.0000000000000000e+00 0.0000000000000000e+00 0.0000000000000000e+00  0.0000000000000000e+00 0.0000000000000000e+00 0.0000000000000000e+00  -9.9589623898396727e-03 -9.9026236066583270e-03 0.0000000000000000e+00  -2.4384749616925310e-02 2.6237299278675796e-02 0.0000000000000000e+00  2.4442903998543517e-02 2.6282396180130903e-02 0.0000000000000000e+00  -2.5795969735304718e-02 -2.5069082173678117e-02 0.0000000000000000e+00  0.0000000000000000e+00 0.0000000000000000e+00 0.0000000000000000e+00  0.0000000000000000e+00 0.0000000000000000e+00 0.0000000000000000e+00  2.4624414426770203e-02 2.0437354374481978e-02 0.0000000000000000e+00  0.0000000000000000e+00 0.0000000000000000e+00 0.0000000000000000e+00  0.0000000000000000e+00 0.0000000000000000e+00 0.0000000000000000e+00  0.0000000000000000e+00 0.0000000000000000e+00 0.0000000000000000e+00  -2.5486619375488115e-02 2.3824850341217372e-02 0.0000000000000000e+00  0.0000000000000000e+00 0.0000000000000000e+00 0.0000000000000000e+00  0.0000000000000000e+00 0.0000000000000000e+00 0.0000000000000000e+00  -1.1301483469952725e-02 1.1297284131257209e-02 0.0000000000000000e+00  -2.5524441564987357e-02 -2.2427937684425501e-02 0.0000000000000000e+00  0.0000000000000000e+00 0.0000000000000000e+00 0.0000000000000000e+00  1.0661576683428599e-02 -1.0673254679867744e-02 0.0000000000000000e+00  1.3866925396038957e-02 -1.5920818916665275e-02 0.0000000000000000e+00  -3.3972405562163036e-02 3.4333027936706895e-02 0.0000000000000000e+00  -1.9233472876842257e-02 -2.7741036643001992e-02 0.0000000000000000e+00  2.1926230386256448e-02 -2.5767026556785519e-02 0.0000000000000000e+00  -1.5826805076247230e-02 -1.7549515259854750e-02 0.0000000000000000e+00  1.5881706658959816e-02 1.7388426204102150e-02 0.0000000000000000e+00  0.0000000000000000e+00 0.0000000000000000e+00 0.0000000000000000e+00  2.5933795232438016e-02 -1.6410518194229898e-02 0.0000000000000000e+00  -2.6279870428654178e-02 1.7882932397423050e-02 0.0000000000000000e+00  3.6276716672316890e-02 -3.6224434969557462e-02 0.0000000000000000e+00  -1.6742014640705648e-02 2.5253910671350414e-02 0.0000000000000000e+00  0.0000000000000000e+00 0.0000000000000000e+00 0.0000000000000000e+00  1.6291309287653717e-02 2.5761221949055991e-02 0.0000000000000000e+00  3.3233503366847196e-02 3.2909383095841765e-02 0.0000000000000000e+00  -2.0092506552548215e-02 1.8110377168603486e-02 0.0000000000000000e+00  1.5839336156190435e-02 -1.3792414129053715e-02 0.0000000000000000e+00  0.0000000000000000e+00 0.0000000000000000e+00 0.0000000000000000e+00  0.0000000000000000e+00 0.0000000000000000e+00 0.0000000000000000e+00  0.0000000000000000e+00 0.0000000000000000e+00 0.0000000000000000e+00  0.0000000000000000e+00 0.0000000000000000e+00 0.0000000000000000e+00  1.8267762401165549e-02 1.6281835471894063e-02 0.0000000000000000e+00  -2.8273075944898994e-02 -1.6114326459554372e-02 0.0000000000000000e+00  -3.4539037353676763e-02 3.4170337177426971e-02 0.0000000000000000e+00  -1.6657213475941068e-02 -1.4532048089451719e-02 0.0000000000000000e+00  0.0000000000000000e+00 0.0000000000000000e+00 0.0000000000000000e+00  0.0000000000000000e+00 0.0000000000000000e+00 0.0000000000000000e+00  0.0000000000000000e+00 0.0000000000000000e+00 0.0000000000000000e+00  0.0000000000000000e+00 0.0000000000000000e+00 0.0000000000000000e+00  0.0000000000000000e+00 0.0000000000000000e+00 0.0000000000000000e+00  0.0000000000000000e+00 0.0000000000000000e+00 0.0000000000000000e+00  0.0000000000000000e+00 0.0000000000000000e+00 0.0000000000000000e+00  0.0000000000000000e+00 0.0000000000000000e+00 0.0000000000000000e+00  0.0000000000000000e+00 0.0000000000000000e+00 0.0000000000000000e+00  0.0000000000000000e+00 0.0000000000000000e+00 0.0000000000000000e+00  0.0000000000000000e+00 0.0000000000000000e+00 0.0000000000000000e+00  0.0000000000000000e+00 0.0000000000000000e+00 0.0000000000000000e+00  0.0000000000000000e+00 0.0000000000000000e+00 0.0000000000000000e+00  0.0000000000000000e+00 0.0000000000000000e+00 0.0000000000000000e+00  -3.7410820514036318e-02 -3.7296410315316400e-02 0.0000000000000000e+00  3.5150995172749958e-02 3.5357026046637811e-02 0.0000000000000000e+00  -1.4256321376301416e-02 1.2387316218919033e-02 0.0000000000000000e+00  3.6377458897168098e-02 -3.6446234398093892e-02 0.0000000000000000e+00  1.5668741139476625e-02 -2.6587901551660569e-02 0.0000000000000000e+00  -2.8489872889629102e-02 9.4050657305253995e-03 0.0000000000000000e+00  2.8551402836202187e-02 -9.3146192825929799e-03 0.0000000000000000e+00  2.6519344531588392e-02 9.6999292971567466e-03 0.0000000000000000e+00  -9.3381043952492186e-03 2.5766011894667505e-02 0.0000000000000000e+00  -1.2592184876690409e-02 -2.8759550302831425e-02 0.0000000000000000e+00  1.0029831754204377e-02 2.6501362832636273e-02 0.0000000000000000e+00  1.8154031570902601e-02 -1.6299861062693273e-02 0.0000000000000000e+00  -2.7006535760404519e-02 -3.2456100087800356e-03 0.0000000000000000e+00  2.7009120308632440e-02 3.1912859461214267e-03 0.0000000000000000e+00  3.5378997526109658e-02 3.2892172226222587e-02 0.0000000000000000e+00  1.4734181215606303e-02 1.3162447082954045e-02 0.0000000000000000e+00  -2.5959472974208198e-02 -8.7803027292421131e-03 0.0000000000000000e+00  -3.1130168494475384e-02 -3.6157009981550602e-02 0.0000000000000000e+00  -1.6216551031181786e-02 -1.7107409453460412e-02 0.0000000000000000e+00  2.2027111176769427e-02 1.3467353454348191e-02 0.0000000000000000e+00  -1.1606785886101428e-02 1.3424264023516626e-02 0.0000000000000000e+00  9.0712356792445482e-03 -2.6306505237352357e-02 0.0000000000000000e+00  -4.1179389921934253e-03 2.7032175064095346e-02 0.0000000000000000e+00  2.9629120316790312e-03 2.5375650241487007e-02 0.0000000000000000e+00  3.3804600097851970e-03 -2.6121621761740110e-02 0.0000000000000000e+00  -2.9862358851291135e-03 -2.5386228027711087e-02 0.0000000000000000e+00  -3.6659088719181200e-02 -3.4409927737356072e-02 0.0000000000000000e+00  -3.6448797006884318e-02 -3.6583826725270746e-02 0.0000000000000000e+00  1.1515773688025775e-02 -1.2953726071927883e-02 0.0000000000000000e+00  -3.7936256704926521e-02 -3.9200691735954245e-02 0.0000000000000000e+00  3.7629457663051417e-02 -3.8432380562364366e-02 0.0000000000000000e+00  1.1429713677877994e-02 1.2815894467017535e-02 0.0000000000000000e+00  -1.4790679390739362e-02 -1.5734211042584250e-02 0.0000000000000000e+00  -2.7909040359693466e-02 2.8535921216696443e-03 0.0000000000000000e+00  2.7946444602962722e-02 -2.8271373537134417e-03 0.0000000000000000e+00  -1.5670016252466328e-02 -1.4376974035295720e-02 0.0000000000000000e+00  -3.6449320039895004e-02 3.5132190113348484e-02 0.0000000000000000e+00  3.6906134936524178e-02 -2.8351771921303472e-02 0.0000000000000000e+00  -1.2443534040833025e-02 -1.0998027806828544e-02 0.0000000000000000e+00  2.4083995998359004e-02 -2.5720899461971345e-02 0.0000000000000000e+00  2.5816389758067448e-02 -2.4408210638544158e-02 0.0000000000000000e+00  1.2617332877014437e-02 -1.1209061723920720e-02 0.0000000000000000e+00  -2.6002049155172319e-02 -2.7044699238201547e-02 0.0000000000000000e+00  -2.1316585075980658e-02 2.2595064569456043e-02 0.0000000000000000e+00  -1.3107723388888335e-02 1.4336594841072950e-02 0.0000000000000000e+00  -1.2059178157651935e-02 -1.4079659967115231e-02 0.0000000000000000e+00  1.4670865177970768e-02 1.3482067947939781e-02 0.0000000000000000e+00  3.3718006383449003e-02 -3.7543508859864391e-02 0.0000000000000000e+00  -2.9661306797543720e-02 -2.8531191671196273e-02 0.0000000000000000e+00  -1.1186133383099473e-02 1.2049001249572235e-02 0.0000000000000000e+00  1.1204400235028845e-02 1.2025525681410255e-02 0.0000000000000000e+00  -1.3917577109206256e-02 1.2852130924017911e-02 0.0000000000000000e+00  -7.7328857089315490e-03 6.4979369024009172e-03 0.0000000000000000e+00  7.6446829475871692e-03 9.3534067667789596e-03 0.0000000000000000e+00  2.5172074236889413e-02 2.6229474884952430e-02 0.0000000000000000e+00  -1.4958529216002736e-02 1.2887168326636689e-02 0.0000000000000000e+00  3.9311495287620790e-02 -3.5239344080569453e-02 0.0000000000000000e+00  -5.7464618870926437e-03 6.8946188088294192e-03 0.0000000000000000e+00  4.1557763650229985e-02 4.1678458686004088e-02 0.0000000000000000e+00  8.5558410020062283e-03 -1.0048752583535945e-02 0.0000000000000000e+00  6.8799545780220128e-03 -5.7633945763230793e-03 0.0000000000000000e+00  8.9167480460786760e-03 7.2055179645938031e-03 0.0000000000000000e+00  -3.9987720927931243e-02 2.9833335904500859e-02 0.0000000000000000e+00  -4.1678151126830820e-02 4.1867058138859464e-02 0.0000000000000000e+00  7.2924572525635894e-03 6.1269437704555112e-03 0.0000000000000000e+00  5.6136408772615928e-03 6.6756916233113072e-03 0.0000000000000000e+00  -7.7612163960169012e-03 -6.5874628798297634e-03 0.0000000000000000e+00  -5.5481238215659588e-03 -6.6628704718683582e-03 0.0000000000000000e+00  1.6793084710577007e-02 1.6878528389278721e-02 0.0000000000000000e+00  -4.2584943626845541e-03 -4.2521990778317384e-03 0.0000000000000000e+00  0.0000000000000000e+00 0.0000000000000000e+00 0.0000000000000000e+00  0.0000000000000000e+00 0.0000000000000000e+00 0.0000000000000000e+00  -5.0367610975844438e-03 5.0326184554874065e-03 0.0000000000000000e+00  4.6218067360007196e-03 -4.5964347623379340e-03 0.0000000000000000e+00  -3.7273360934104029e-02 -2.6210725721032731e-02 0.0000000000000000e+00  2.9511364530526142e-02 -3.0170559858366783e-02 0.0000000000000000e+00  3.5120570421411201e-02 3.4879350860465244e-02 0.0000000000000000e+00  2.1580668600241801e-02 2.1426479803450853e-02 0.0000000000000000e+00  0.0000000000000000e+00 0.0000000000000000e+00 0.0000000000000000e+00  1.3239134325763686e-02 -1.3249052524668920e-02 0.0000000000000000e+00  1.6103808502077297e-02 -1.7052045100131981e-02 0.0000000000000000e+00  -2.7927417103501950e-02 3.6895859903871460e-02 0.0000000000000000e+00  -3.5560759214062682e-02 3.7870177538589900e-02 0.0000000000000000e+00  2.7307354027583837e-02 3.6333119346264965e-02 0.0000000000000000e+00  3.5484810825006943e-02 3.8296686789797460e-02 0.0000000000000000e+00  -3.6000913363302994e-02 1.7445900845828949e-02 0.0000000000000000e+00  -3.2756929468173102e-02 3.2532320485267795e-02 0.0000000000000000e+00  0.0000000000000000e+00 0.0000000000000000e+00 0.0000000000000000e+00  3.9698860960984628e-02 3.1245245146943396e-02 0.0000000000000000e+00  -9.4540153392815660e-03 -1.5840843303326635e-02 0.0000000000000000e+00  3.2720096074738421e-02 3.2368461683701985e-02 0.0000000000000000e+00  -2.4438785267263809e-02 2.5335700487230529e-02 0.0000000000000000e+00  -1.0954949539803810e-02 -1.0423362887187253e-02 0.0000000000000000e+00  -1.7944839926442416e-02 -1.3680458149837961e-02 0.0000000000000000e+00  2.6413131522986688e-02 -4.2050235925148394e-02 0.0000000000000000e+00  2.4618828391037122e-02 2.3446367981509925e-02 0.0000000000000000e+00  4.5850536938319038e-03 4.5609273140360691e-03 0.0000000000000000e+00  -9.1136775700771631e-03 -3.4836265936301222e-02 0.0000000000000000e+00  1.3861683742829544e-02 -1.2586311040425019e-02 0.0000000000000000e+00  4.1002423331426320e-02 2.1383032569934190e-02 0.0000000000000000e+00  -8.5751161440182650e-03 1.0302004521261001e-02 0.0000000000000000e+00  -1.7827362031728730e-02 1.7880710172685908e-02 0.0000000000000000e+00  -2.6776214821092607e-02 2.6295303577490603e-02 0.0000000000000000e+00  -7.9462243431757500e-03 -9.6006400582414556e-03 0.0000000000000000e+00  0.0000000000000000e+00 0.0000000000000000e+00 0.0000000000000000e+00  -1.0893133091833833e-02 9.0846651148339778e-03 0.0000000000000000e+00  1.8075210357839240e-04 -3.9044604253733892e-02 0.0000000000000000e+00  2.3523829318536908e-06 3.9835583968539770e-02 0.0000000000000000e+00  -1.5742085746478025e-02 -1.6067678761666173e-02 0.0000000000000000e+00  -4.3337835526298815e-02 4.2306705831470760e-02 0.0000000000000000e+00  1.4847898850583642e-02 1.6941486341642623e-02 0.0000000000000000e+00  0.0000000000000000e+00 0.0000000000000000e+00 0.0000000000000000e+00  -9.5963420911054191e-03 -7.9016361764561657e-03 0.0000000000000000e+00  3.7079933179395091e-02 -1.7167368173249511e-02 0.0000000000000000e+00  1.8125506786370461e-02 -9.1338197265690563e-03 0.0000000000000000e+00  1.7573350756373011e-02 -3.9930911240412099e-02 0.0000000000000000e+00  0.0000000000000000e+00 0.0000000000000000e+00 0.0000000000000000e+00  1.2477146956031455e-02 1.2004820592914694e-02 0.0000000000000000e+00  0.0000000000000000e+00 0.0000000000000000e+00 0.0000000000000000e+00  -1.7299214887900805e-02 9.6248234071993014e-03 0.0000000000000000e+00  4.3172662352611461e-02 4.2377904910589084e-02 0.0000000000000000e+00  1.1122297373938383e-02 -1.2980942789425529e-02 0.0000000000000000e+00  2.4625179633779189e-02 -2.5413654072280082e-02 0.0000000000000000e+00  8.8650407477781669e-03 3.7955861114220661e-02 0.0000000000000000e+00  -1.8042926200955267e-02 3.7013669604420547e-02 0.0000000000000000e+00  -3.8750988584845575e-02 -3.2235749231543001e-02 0.0000000000000000e+00  0.0000000000000000e+00 0.0000000000000000e+00 0.0000000000000000e+00  -3.7759825451203398e-02 3.3158533655040769e-02 0.0000000000000000e+00  0.0000000000000000e+00 0.0000000000000000e+00 0.0000000000000000e+00  0.0000000000000000e+00 0.0000000000000000e+00 0.0000000000000000e+00  -2.5758841525063438e-02 -