<?xml version="1.0"?>
<VTKFile type="UnstructuredGrid"  version="0.1"  >
<UnstructuredGrid>
<Piece  NumberOfPoints="1109" NumberOfCells="1972">
<Points>
<DataArray  type="Float64"  NumberOfComponents="3"  format="ascii">0 1 0  0 0 0  1 0 0  1 1 0  0.8968458805257912 0.5501332934257217 0  0.9 0.5 0  0.8968458805257911 0.4498667065742781 0  0.8874332644514524 0.4005240451340579 0  0.8719105943553006 0.3527501789261288 0  0.8505226720175453 0.3072985303593135 0  0.823606797749979 0.2648858990830106 0  0.7915874509685645 0.2261811576285244 0  0.7549695958994758 0.1917947028896841 0  0.7143307179915988 0.162268829799194 0  0.6703117166260287 0.138069179013592 0  0.6236067977499788 0.1195773934819385 0  0.5749525258342897 0.1070850997085245 0  0.5251162078117251 0.1007893086286913 0  0.4748837921882747 0.1007893086286913 0  0.4250474741657101 0.1070850997085245 0  0.376393202250021 0.1195773934819386 0  0.3296882833739712 0.1380691790135921 0  0.2856692820084015 0.1622688297991939 0  0.2450304041005242 0.1917947028896843 0  0.2084125490314353 0.2261811576285246 0  0.1763932022500209 0.2648858990830109 0  0.1494773279824546 0.3072985303593139 0  0.1280894056446994 0.3527501789261288 0  0.1125667355485475 0.4005240451340581 0  0.1031541194742088 0.4498667065742783 0  0.09999999999999998 0.5 0  0.1031541194742089 0.5501332934257218 0  0.1125667355485476 0.5994759548659421 0  0.1280894056446995 0.6472498210738713 0  0.1494773279824546 0.6927014696406861 0  0.176393202250021 0.7351141009169893 0  0.2084125490314355 0.7738188423714756 0  0.2450304041005241 0.8082052971103157 0  0.2856692820084012 0.837731170200806 0  0.3296882833739709 0.8619308209864078 0  0.3763932022500212 0.8804226065180615 0  0.4250474741657101 0.8929149002914756 0  0.4748837921882746 0.8992106913713087 0  0.5251162078117254 0.8992106913713087 0  0.5749525258342899 0.8929149002914755 0  0.623606797749979 0.8804226065180614 0  0.6703117166260291 0.8619308209864078 0  0.7143307179915986 0.8377311702008061 0  0.754969595899476 0.8082052971103157 0  0.7915874509685646 0.7738188423714755 0  0.823606797749979 0.7351141009169893 0  0.8505226720175454 0.6927014696406861 0  0.8719105943553006 0.6472498210738712 0  0.8874332644514524 0.599475954865942 0  0.5 1 0  0 0.5 0  1 0.5 0  0.5 0 0  0.75 1 0  0.25 1 0  0 0.75 0  0 0.25 0  1 0.25 0  1 0.75 0  0.75 0 0  0.25 0 0  0.625 1 0  0.375 1 0  0 0.625 0  0 0.375 0  1 0.375 0  1 0.625 0  0.625 0 0  0.375 0 0  0.125 0 0  0.875 0 0  1 0.125 0  0 0.875 0  0.125 1 0  0.875 1 0  0 0.125 0  1 0.875 0  0.1443946775413214 0.1213187937376868 0  0.8556053224586788 0.8786812062623132 0  0.8556053224586785 0.1213187937376867 0  0.1275360334547992 0.8724639665452008 0  0.9261623581710797 0.1875 0  0.09234641934319709 0.2082689144241477 0  0.9076535806568029 0.7917310855758523 0  0.08970099689351971 0.7603836651344988 0  0.2182130526099624 0.9079579669686324 0  0.07086411995581518 0.07086411995581518 0  1 0.0625 0  0.9375 0 0  0.0625 1 0  0 0.9375 0  0.9291358800441849 0.9291358800441849 0  0.7304772975931939 0.08076335202639119 0  0.2695227024068061 0.08076335202639115 0  0.7697819974699807 0.9105968468121929 0  1 0.6875 0  1 0.3125 0  0.06784168511078095 0.2966417331842567 0  0 0.6875 0  0.1875 0 0  0.8125 0 0  0.9212459744619301 0.2681742056774029 0  0.3125 1 0  0.6875 1 0  0.922097136530977 0.07790286346902295 0  0.9261304603587264 0.7150772115644075 0  0 0.8125 0  0.07432186328509671 0.9256781367149033 0  0.06317182982585627 0.84375 0  0.8548473925302104 0.1928285354262928 0  0.2914274450692525 0.9272721924131209 0  0.6710199663399635 0.9319471281137308 0  0.9226595291420543 0.8597667107019437 0  0.0773404708579461 0.1402332892980563 0  0.8125 1 0  0.06054886616517211 0.65625 0  0.9362657027224049 0.3336129027547622 0  0.1841195715992005 0.8363784907223111 0  0.6625377124131507 0.06023416665880475 0  0.3125 0 0  0.34375 0.06016090820395464 0  0.2153846372786545 0.1270381302276244 0  0.8024953780019808 0.07187189600048093 0  0.1546395545758083 0.9367961467266345 0  0.5625 1 0  0.4375 0 0  0.4375 1 0  0.5625 0 0  0.1844766880788185 0.06724298999790632 0  0.9369725282473387 0.6419809811402504 0  0.791523351719164 0.1369023590147849 0  0.8285961364903059 0.9374018659319692 0  1 0.4375 0  0 0.4375 0  1 0.5625 0  0 0.5625 0  0 0.3125 0  1 0.8125 0  0.0625 0 0  0 0.0625 0  0 0.1875 0  1 0.1875 0  1 0.9375 0  0.9375 1 0  0.6875 0 0  0.1875 1 0  0.8126465958421825 0.8329348088176629 0  0.1550798535647612 0.1867680086445373 0  0.8631981559835366 0.06032295929500282 0  0.1449089435554358 0.7884432695884597 0  0.3538206140027237 0.9399564250283491 0  0.944997661525766 0.4151121561005554 0  0.05500233847423393 0.5848878438994446 0  0.0520912947951912 0.40625 0  0.59375 0.05063263303723638 0  0.6113142584645842 0.9411585052804305 0  0.402402637527157 0.05243074290023167 0  0.05237021982595785 0.7146869946988353 0  0.9514280734197595 0.53125 0  0.04857192658024048 0.46875 0  0.1138995451272664 0.2618291859344329 0  0.1276043399716366 0.06698080255494471 0  0.9496852823490703 0.5873315358652272 0  0.7164226875694513 0.8936714072472519 0  0.728445758907293 0.9483406189827143 0  0.05037626111865807 0.3500677784994627 0  0.9425695009311538 0.1320174568820216 0  0.4108317852857326 0.9488345682840208 0  0.5398628985995173 0.04893133705064829 0  0.46875 0.04573672429098317 0  0.4652931800096448 0.9529811055869081 0  0.53125 0.9542632757090168 0  0.8785971272885281 0.7441734326495726 0  0.8518416617605847 0.7931754903661554 0  0.04183404050302509 0.78125 0  0.7612395846848441 0.8595654412716175 0  0.2310588911243982 0.8579303197600836 0  0.04148050284378633 0.21875 0  0.9494864361787021 0.7612608042848362 0  0.9500000000000001 0.4721339993173143 0  0.04999999999999998 0.5278660006826856 0  0.8781553628189985 0.9246252444972441 0  0.8731991046476956 0.2435858407989878 0  0.09811738497342513 0.6912987895906199 0  0.78125 0.9600244726998853 0  0.09951704281279977 0.8094116423849811 0  0.1723930843372325 0.8914409560171174 0  0.21875 0.9592823984315264 0  0.8808053857873319 0.8333253975559158 0  0.8963977713581862 0.1485308906960134 0  0.9538351164349618 0.2296733193971382 0  0.9502525126806526 0.8180081280125184 0  0.2312490385075739 0.04727387874777968 0  0.2715914187620846 0.8835921407480765 0  0.8075381809024645 0.880775593205643 0  0.71875 0.03518728418751645 0  0.28125 0.03518728418751642 0  0.7646042202168328 0.04444036111707996 0  0.9023329991729737 0.03666350737326187 0  0.03401531498238862 0.15625 0  0.1188530488980251 0.1590855287670435 0  0.9585274478449393 0.2940602659505009 0  0.122777080947294 0.7293581095092172 0  0.9670375667902916 0.09375 0  0.2005134857209875 0.1810792546569654 0  0.04567406045797464 0.8878541658538743 0  0.09375 0.966869578205468 0  0.1562008719445321 0.03232788333739163 0  0.8953932105853648 0.3139420780646932 0  0.7990572522972532 0.1815363722387022 0  0.0968875242781685 0.03463409819727443 0  0.03223722036876893 0.09375 0  0.9004223587754672 0.9633108159792649 0  0.9677627796312311 0.90625 0  0.1015654613822437 0.1029847255361322 0  0.9612688796250578 0.9612688796250578 0  0 0.03125 0  0.03125 0 0  0.04144949962501476 0.9585505003749852 0  0.9558898336496962 0.04411016635030385 0  0.9068917513393455 0.6748714165270275 0  0.1368346895292699 0.830580202512584 0  0.1325215314767946 0.2232188145997174 0  0.07053058491102715 0.2523250971165124 0  0.28125 1 0  0.2618257196382527 0.9585732837283344 0  0.08628220552312613 0.8784418410901162 0  0.6885162251696433 0.09694521726220126 0  0.7451861497985837 0.1260293295250874 0  0.313422114933215 0.09491014745286984 0  0.2604190570795071 0.1249189143540631 0  0.9242490330121279 0.3761177923443456 0  0.8294827367589617 0.1534479284350518 0  0 0.28125 0  0.1085704015556412 0.3026527142683792 0  0.6454377779583714 0.9642341400769985 0  0.1735682150935896 0.1501527832362767 0  0.9118639212665761 0.2270478094042325 0  0.9675029085737417 0.7231519194735394 0  0.9540854621793986 0.6818714685662951 0  0.3411855214203015 0.9011195850022233 0  0.2203778463487443 0.08657146517086198 0  0.04103470738435357 0.04103470738435357 0  0.5692124642834736 0.9350661676969988 0  0.1143804055696223 0.9319617439078584 0  0.08871656954519293 0.3663659127109965 0  0.9630811790855398 0.168250321868886 0  0.8941478109554366 0.1077225817667272 0  0.7685953432959879 0.09339992494635127 0  0.9613334331586147 0.8673647296762501 0  0.84375 0 0  0.8276419188889859 0.03874003995670209 0  0.4987074584280061 0.9312004428379874 0  0.4999999999999999 0.07012294039149713 0  0.906353444207591 0.8962759602721756 0  0.8317000502825128 0.2255938539236174 0  0.060982293117454 0.1847248153131282 0  0.84375 1 0  0.8601163332513452 0.9625346208269469 0  0.07696867235812772 0.6190771663714262 0  0.03866375363197156 0.624370156890833 0  0.386395970129115 0.9182613855572013 0  0.59375 1 0  0.03763634871355165 0.2725691404761272 0  1 0.34375 0  0.9619513789393942 0.3638256452123659 0  0.1705891391383945 0.2215719862571997 0  0.2993345649440622 0.9643978827856838 0  0.2548390693531445 0.917543736811073 0  0.4376701674058487 0.06983678836603174 0  0.6249880952696493 0.07804203554412367 0  0.8891633930840495 0.7080603551933189 0  0 0.65625 0  0.8857454763750297 0.2783067670731572 0  1 0.65625 0  0 0.59375 0  0.9147359581367025 0.7498372322849914 0  0.34375 1 0  0.08128436453222096 0.3306040779845135 0  0.8370204413255111 0.08803482611562097 0  0.4399236117509409 0.9264634199869409 0  0.3763243110806382 0.08093997073896844 0  1 0.78125 0  0.3058827875685617 0.8943637152968825 0  0.891027260700638 0.1971556622156984 0  0.1814462944911871 0.9630031969500565 0  0.1812917788273262 0.1067749496803429 0  0.2291605611046911 0.1598957180171764 0  0.630525566101238 0.03837025329843378 0  0.03363261960646192 0.92260900189631 0  0.2960793559902691 0.1260912307633523 0  0.03663553287191564 0.8179172045954961 0  0.02996523389584273 0.8560987956667739 0  0.09880166525369549 0.8450583124835681 0  0.6923212173088138 0.150169004406393 0  0.502
[...]
<PointData  Vectors="u"> 
<DataArray  type="Float64"  Name="u"  NumberOfComponents="3" format="ascii">0.0000000000000000e+00 0.0000000000000000e+00 0.0000000000000000e+00  0.0000000000000000e+00 0.0000000000000000e+00 0.0000000000000000e+00  0.0000000000000000e+00 0.0000000000000000e+00 0.0000000000000000e+00  0.0000000000000000e+00 0.0000000000000000e+00 0.0000000000000000e+00  -1.0651752806676412e-01 -1.7277394788034545e-02 0.0000000000000000e+00  -1.0500983487290405e-01 2.9908065610909848e-05 0.0000000000000000e+00  -1.0649409189108520e-01 1.7152510682419502e-02 0.0000000000000000e+00  -1.0975879454404862e-01 3.6196793292329714e-02 0.0000000000000000e+00  -1.1330512668577912e-01 5.7747110455496936e-02 0.0000000000000000e+00  -1.1531570467319339e-01 8.0740794554718220e-02 0.0000000000000000e+00  -1.1500261200328808e-01 1.0055201610147357e-01 0.0000000000000000e+00  -1.1320269914382614e-01 1.1119051813608800e-01 0.0000000000000000e+00  -1.0715748339691411e-01 1.1430605957311944e-01 0.0000000000000000e+00  -9.1551092390757968e-02 1.1536739728014517e-01 0.0000000000000000e+00  -6.9334943076865094e-02 1.1452431169890152e-01 0.0000000000000000e+00  -4.6725048242540423e-02 1.1162335481694105e-01 0.0000000000000000e+00  -2.6432521923788397e-02 1.0790637341010910e-01 0.0000000000000000e+00  -8.5667383410958260e-03 1.0554721883782979e-01 0.0000000000000000e+00  8.6719820946328345e-03 1.0549437996135995e-01 0.0000000000000000e+00  2.6526736264713885e-02 1.0792134578886271e-01 0.0000000000000000e+00  4.6731648422661844e-02 1.1159075027422048e-01 0.0000000000000000e+00  6.9210862575007803e-02 1.1462935325449268e-01 0.0000000000000000e+00  9.1623219654068055e-02 1.1529195598236749e-01 0.0000000000000000e+00  1.0715752830015937e-01 1.1426873965893662e-01 0.0000000000000000e+00  1.1319025887881279e-01 1.1108361167480549e-01 0.0000000000000000e+00  1.1491603407068281e-01 1.0047590271943581e-01 0.0000000000000000e+00  1.1536726459948783e-01 8.0858946848228030e-02 0.0000000000000000e+00  1.1343023226748815e-01 5.7740210290021077e-02 0.0000000000000000e+00  1.0977567178073210e-01 3.6147005726670629e-02 0.0000000000000000e+00  1.0650790531741630e-01 1.7276725074294726e-02 0.0000000000000000e+00  1.0506870130609526e-01 -9.9106151843429807e-05 0.0000000000000000e+00  1.0634864538825570e-01 -1.7260474961284415e-02 0.0000000000000000e+00  1.0970836164241284e-01 -3.6254111788679204e-02 0.0000000000000000e+00  1.1323509772910824e-01 -5.7771828663841202e-02 0.0000000000000000e+00  1.1521558152910022e-01 -8.0765024992835152e-02 0.0000000000000000e+00  1.1500777272169828e-01 -1.0043874291298506e-01 0.0000000000000000e+00  1.1275154854377079e-01 -1.1080088357046618e-01 0.0000000000000000e+00  1.0674642488558807e-01 -1.1425997647860796e-01 0.0000000000000000e+00  9.1647665457037952e-02 -1.1533485540398014e-01 0.0000000000000000e+00  6.9247964092398473e-02 -1.1449915671592745e-01 0.0000000000000000e+00  4.6735583621839827e-02 -1.1161965100351738e-01 0.0000000000000000e+00  2.6439282606778251e-02 -1.0801341142705380e-01 0.0000000000000000e+00  8.6378512150103136e-03 -1.0554033355485648e-01 0.0000000000000000e+00  -8.5849927462591097e-03 -1.0547035006281839e-01 0.0000000000000000e+00  -2.6453669572986716e-02 -1.0790745071748462e-01 0.0000000000000000e+00  -4.6669109417371540e-02 -1.1161996891042873e-01 0.0000000000000000e+00  -6.9242263616616617e-02 -1.1455428565651117e-01 0.0000000000000000e+00  -9.1454055761689218e-02 -1.1507794354151611e-01 0.0000000000000000e+00  -1.0683986181780795e-01 -1.1400461015442745e-01 0.0000000000000000e+00  -1.1323597050869706e-01 -1.1081613952030694e-01 0.0000000000000000e+00  -1.1469898225789432e-01 -1.0033184814077470e-01 0.0000000000000000e+00  -1.1512766500541501e-01 -8.0770971777965911e-02 0.0000000000000000e+00  -1.1318389571042096e-01 -5.7828543314002626e-02 0.0000000000000000e+00  -1.0976704798316576e-01 -3.6188954624977461e-02 0.0000000000000000e+00  0.0000000000000000e+00 0.0000000000000000e+00 0.0000000000000000e+00  0.0000000000000000e+00 0.0000000000000000e+00 0.0000000000000000e+00  0.0000000000000000e+00 0.0000000000000000e+00 0.0000000000000000e+00  0.0000000000000000e+00 0.0000000000000000e+00 0.0000000000000000e+00  0.0000000000000000e+00 0.0000000000000000e+00 0.0000000000000000e+00  0.0000000000000000e+00 0.0000000000000000e+00 0.0000000000000000e+00  0.0000000000000000e+00 0.0000000000000000e+00 0.0000000000000000e+00  0.0000000000000000e+00 0.0000000000000000e+00 0.0000000000000000e+00  0.0000000000000000e+00 0.0000000000000000e+00 0.0000000000000000e+00  0.0000000000000000e+00 0.0000000000000000e+00 0.0000000000000000e+00  0.0000000000000000e+00 0.0000000000000000e+00 0.0000000000000000e+00  0.0000000000000000e+00 0.0000000000000000e+00 0.0000000000000000e+00  0.0000000000000000e+00 0.0000000000000000e+00 0.0000000000000000e+00  0.0000000000000000e+00 0.0000000000000000e+00 0.0000000000000000e+00  0.0000000000000000e+00 0.0000000000000000e+00 0.0000000000000000e+00  0.0000000000000000e+00 0.0000000000000000e+00 0.0000000000000000e+00  0.0000000000000000e+00 0.0000000000000000e+00 0.0000000000000000e+00  0.0000000000000000e+00 0.0000000000000000e+00 0.0000000000000000e+00  0.0000000000000000e+00 0.0000000000000000e+00 0.0000000000000000e+00  0.0000000000000000e+00 0.0000000000000000e+00 0.0000000000000000e+00  0.0000000000000000e+00 0.0000000000000000e+00 0.0000000000000000e+00  0.0000000000000000e+00 0.0000000000000000e+00 0.0000000000000000e+00  0.0000000000000000e+00 0.0000000000000000e+00 0.0000000000000000e+00  0.0000000000000000e+00 0.0000000000000000e+00 0.0000000000000000e+00  0.0000000000000000e+00 0.0000000000000000e+00 0.0000000000000000e+00  0.0000000000000000e+00 0.0000000000000000e+00 0.0000000000000000e+00  0.0000000000000000e+00 0.0000000000000000e+00 0.0000000000000000e+00  0.0000000000000000e+00 0.0000000000000000e+00 0.0000000000000000e+00  5.4250267021247058e-02 5.2760213264409404e-02 0.0000000000000000e+00  -5.4318794011155441e-02 -5.2965223950174917e-02 0.0000000000000000e+00  -5.4194071609823237e-02 5.2693558394285210e-02 0.0000000000000000e+00  5.0865971433700419e-02 -5.0973291521727658e-02 0.0000000000000000e+00  -3.9042646380874860e-02 4.2192588315015871e-02 0.0000000000000000e+00  5.2076510240082620e-02 5.3208749506541732e-02 0.0000000000000000e+00  -5.2144604320673214e-02 -5.2974645383504389e-02 0.0000000000000000e+00  5.6357356218361833e-02 -5.2670929293986563e-02 0.0000000000000000e+00  5.3604311525766814e-02 -5.3552929962254470e-02 0.0000000000000000e+00  2.1707498475280952e-02 2.1769734807231943e-02 0.0000000000000000e+00  0.0000000000000000e+00 0.0000000000000000e+00 0.0000000000000000e+00  0.0000000000000000e+00 0.0000000000000000e+00 0.0000000000000000e+00  0.0000000000000000e+00 0.0000000000000000e+00 0.0000000000000000e+00  0.0000000000000000e+00 0.0000000000000000e+00 0.0000000000000000e+00  -2.1823084123009286e-02 -2.1704593716539898e-02 0.0000000000000000e+00  -4.6773124733799486e-02 5.6099723914675423e-02 0.0000000000000000e+00  4.6861707165736913e-02 5.6192993296150184e-02 0.0000000000000000e+00  -5.2570741482189848e-02 -5.4316366210795539e-02 0.0000000000000000e+00  0.0000000000000000e+00 0.0000000000000000e+00 0.0000000000000000e+00  0.0000000000000000e+00 0.0000000000000000e+00 0.0000000000000000e+00  5.1709310123754723e-02 3.7199497420615180e-02 0.0000000000000000e+00  0.0000000000000000e+00 0.0000000000000000e+00 0.0000000000000000e+00  0.0000000000000000e+00 0.0000000000000000e+00 0.0000000000000000e+00  0.0000000000000000e+00 0.0000000000000000e+00 0.0000000000000000e+00  -5.4498467688091953e-02 4.5655162751950265e-02 0.0000000000000000e+00  0.0000000000000000e+00 0.0000000000000000e+00 0.0000000000000000e+00  0.0000000000000000e+00 0.0000000000000000e+00 0.0000000000000000e+00  -2.4763485631334799e-02 2.4747324481208286e-02 0.0000000000000000e+00  -5.4040767822355298e-02 -4.1746990065330024e-02 0.0000000000000000e+00  0.0000000000000000e+00 0.0000000000000000e+00 0.0000000000000000e+00  2.3382643439519193e-02 -2.3405836865802273e-02 0.0000000000000000e+00  2.9911075115438546e-02 -3.4109323780406917e-02 0.0000000000000000e+00  -7.4795520232837698e-02 7.4938833212399428e-02 0.0000000000000000e+00  4.0399890031012659e-02 -5.4342845593749169e-02 0.0000000000000000e+00  -3.3571003092619310e-02 -5.6683894630455874e-02 0.0000000000000000e+00  -3.4341775077065685e-02 -3.8197199429099729e-02 0.0000000000000000e+00  3.4497447192259570e-02 3.7904111070406553e-02 0.0000000000000000e+00  0.0000000000000000e+00 0.0000000000000000e+00 0.0000000000000000e+00  5.2273637648972388e-02 -2.7967271398406410e-02 0.0000000000000000e+00  -5.3528001860134240e-02 3.0951258484652452e-02 0.0000000000000000e+00  7.9863420553028655e-02 -7.9977440177462569e-02 0.0000000000000000e+00  -2.8724835260720890e-02 5.1218542138771604e-02 0.0000000000000000e+00  0.0000000000000000e+00 0.0000000000000000e+00 0.0000000000000000e+00  2.7810680703532271e-02 5.1925767111246607e-02 0.0000000000000000e+00  7.0921547658096523e-02 7.2003125409592708e-02 0.0000000000000000e+00  -4.1740612050062298e-02 3.9241622187674963e-02 0.0000000000000000e+00  3.3952827864877119e-02 -2.9759988332958610e-02 0.0000000000000000e+00  0.0000000000000000e+00 0.0000000000000000e+00 0.0000000000000000e+00  0.0000000000000000e+00 0.0000000000000000e+00 0.0000000000000000e+00  0.0000000000000000e+00 0.0000000000000000e+00 0.0000000000000000e+00  0.0000000000000000e+00 0.0000000000000000e+00 0.0000000000000000e+00  3.8406342671397607e-02 3.5257448111064960e-02 0.0000000000000000e+00  -5.6204222551190508e-02 -2.7064031409411153e-02 0.0000000000000000e+00  -7.4498800352524860e-02 7.5003322599372466e-02 0.0000000000000000e+00  -3.5271324549513247e-02 -3.1413056841153933e-02 0.0000000000000000e+00  0.0000000000000000e+00 0.0000000000000000e+00 0.0000000000000000e+00  0.0000000000000000e+00 0.0000000000000000e+00 0.0000000000000000e+00  0.0000000000000000e+00 0.0000000000000000e+00 0.0000000000000000e+00  0.0000000000000000e+00 0.0000000000000000e+00 0.0000000000000000e+00  0.0000000000000000e+00 0.0000000000000000e+00 0.0000000000000000e+00  0.0000000000000000e+00 0.0000000000000000e+00 0.0000000000000000e+00  0.0000000000000000e+00 0.0000000000000000e+00 0.0000000000000000e+00  0.0000000000000000e+00 0.0000000000000000e+00 0.0000000000000000e+00  0.0000000000000000e+00 0.0000000000000000e+00 0.0000000000000000e+00  0.0000000000000000e+00 0.0000000000000000e+00 0.0000000000000000e+00  0.0000000000000000e+00 0.0000000000000000e+00 0.0000000000000000e+00  0.0000000000000000e+00 0.0000000000000000e+00 0.0000000000000000e+00  0.0000000000000000e+00 0.0000000000000000e+00 0.0000000000000000e+00  0.0000000000000000e+00 0.0000000000000000e+00 0.0000000000000000e+00  -8.2433739115723811e-02 -8.2424130795173897e-02 0.0000000000000000e+00  7.7543773191167994e-02 7.7671546259699131e-02 0.0000000000000000e+00  -3.0880894678286086e-02 2.6664382439997476e-02 0.0000000000000000e+00  7.9944914090601074e-02 -7.8915631324728633e-02 0.0000000000000000e+00  2.6387170112305184e-02 -5.3078549599028198e-02 0.0000000000000000e+00  -5.4006866031867266e-02 1.5035920164164740e-02 0.0000000000000000e+00  5.4071775537946565e-02 -1.4925790565158319e-02 0.0000000000000000e+00  5.0580835730885010e-02 1.5606190431939268e-02 0.0000000000000000e+00  -1.5046105053993583e-02 4.9158642149250809e-02 0.0000000000000000e+00  -2.0544423128216392e-02 -5.5608710906131176e-02 0.0000000000000000e+00  1.6164624148389782e-02 5.0668091904516745e-02 0.0000000000000000e+00  3.8421432188391703e-02 -2.9739218584397879e-02 0.0000000000000000e+00  -4.9893542888972603e-02 -5.0666133399669818e-03 0.0000000000000000e+00  4.9910005524639721e-02 4.9804579775680410e-03 0.0000000000000000e+00  7.6220829112622027e-02 6.5755194441226794e-02 0.0000000000000000e+00  3.2148378598343318e-02 2.8441985535270619e-02 0.0000000000000000e+00  -4.9288130257812875e-02 -1.3972356974620017e-02 0.0000000000000000e+00  -6.0059651704941680e-02 -7.6968144926783222e-02 0.0000000000000000e+00  -3.0102054290363472e-02 -3.6471063672167701e-02 0.0000000000000000e+00  4.4153277325997602e-02 2.2543991933765661e-02 0.0000000000000000e+00  -2.4919428521071804e-02 2.9113848159105435e-02 0.0000000000000000e+00  1.4507194693264676e-02 -4.9992540222136145e-02 0.0000000000000000e+00  -6.4949958664136170e-03 5.0061914823752711e-02 0.0000000000000000e+00  4.5928266488040308e-03 4.6927040355322268e-02 0.0000000000000000e+00  5.2774731760648246e-03 -4.8280540566004962e-02 0.0000000000000000e+00  -4.6952266724452569e-03 -4.6930041677167522e-02 0.0000000000000000e+00  -7.9324771345506973e-02 -7.0079502121936962e-02 0.0000000000000000e+00  -8.0206622761330351e-02 -7.9492689556912854e-02 0.0000000000000000e+00  2.4829418130698916e-02 -2.5602995439204610e-02 0.0000000000000000e+00  -8.0121692282894869e-02 -8.5640775674689168e-02 0.0000000000000000e+00  8.0128615714802898e-02 -8.4107895589536796e-02 0.0000000000000000e+00  2.4676845759520779e-02 2.5337337071984874e-02 0.0000000000000000e+00  -3.1860492000861537e-02 -3.0551201280380514e-02 0.0000000000000000e+00  -5.1499505349181601e-02 4.4878821867358728e-03 0.0000000000000000e+00  5.1534565996250281e-02 -4.4162209801970782e-03 0.0000000000000000e+00  -3.4393090910877069e-02 -3.1203011861831824e-02 0.0000000000000000e+00  -7.9297428165203049e-02 7.2957896385304533e-02 0.0000000000000000e+00  7.6970399588037156e-02 -5.2184672984079548e-02 0.0000000000000000e+00  -2.4504251602667934e-02 -2.3734837594263630e-02 0.0000000000000000e+00  5.2496850160334910e-02 -5.4949028860911110e-02 0.0000000000000000e+00  5.6065192348141071e-02 -5.3363618474876917e-02 0.0000000000000000e+00  2.4889054378209107e-02 -2.4197927146204071e-02 0.0000000000000000e+00  -5.7015914997760118e-02 -5.9095274759215013e-02 0.0000000000000000e+00  -4.6580006309307434e-02 4.9419190118733636e-02 0.0000000000000000e+00  -2.8262721633091171e-02 2.8087157703344034e-02 0.0000000000000000e+00  -2.6027459492244300e-02 -2.9183014839278897e-02 0.0000000000000000e+00  2.8699518099900338e-02 2.9099883757580311e-02 0.0000000000000000e+00  6.6762382584065250e-02 -8.0600276120905215e-02 0.0000000000000000e+00  -6.3975966625417241e-02 -6.2503400461404859e-02 0.0000000000000000e+00  -2.0219217146517022e-02 2.5556388093670744e-02 0.0000000000000000e+00  2.0217775317591939e-02 2.5521812820225025e-02 0.0000000000000000e+00  -2.7004066523744433e-02 2.7735882856207598e-02 0.0000000000000000e+00  -1.6922867054737979e-02 1.3831885977534064e-02 0.0000000000000000e+00  1.6336111500819074e-02 1.9650897021026348e-02 0.0000000000000000e+00  5.5227570595022542e-02 5.7491831680949623e-02 0.0000000000000000e+00  -3.1445018787161279e-02 2.3009382424006734e-02 0.0000000000000000e+00  8.4507655891873271e-02 -7.0280407403717937e-02 0.0000000000000000e+00  -1.2199132679704973e-02 1.5106420526734351e-02 0.0000000000000000e+00  9.1474792041530556e-02 9.2095569299892044e-02 0.0000000000000000e+00  1.8279956080039152e-02 -2.1948072421419131e-02 0.0000000000000000e+00  1.5058674188472150e-02 -1.2242731199373089e-02 0.0000000000000000e+00  1.8635826934248059e-02 1.5417935308654342e-02 0.0000000000000000e+00  -8.3105722021275724e-02 5.4818392205879939e-02 0.0000000000000000e+00  -9.1759513784066840e-02 9.2540306512311488e-02 0.0000000000000000e+00  1.5962740418455669e-02 1.3023745210554881e-02 0.0000000000000000e+00  1.1933144282711430e-02 1.4636006839008436e-02 0.0000000000000000e+00  -1.6983055331629159e-02 -1.4020047845618874e-02 0.0000000000000000e+00  -1.1819909862099834e-02 -1.4526826801633298e-02 0.0000000000000000e+00  3.6826877649241217e-02 3.7060117470707803e-02 0.0000000000000000e+00  -9.3545002137836886e-03 -9.3419304463676616e-03 0.0000000000000000e+00  0.0000000000000000e+00 0.0000000000000000e+00 0.0000000000000000e+00  0.0000000000000000e+00 0.0000000000000000e+00 0.0000000000000000e+00  1.0162555630216879e-02 -1.0059726421772802e-02 0.0000000000000000e+00  -1.1037673452347492e-02 1.1012412473788598e-02 0.0000000000000000e+00  -7.6610049349975728e-02 -4.6956145100995134e-02 0.0000000000000000e+00  6.4952390021083134e-02 -6.6171148685011866e-02 0.0000000000000000e+00  7.6853284664649774e-02 7.4282267468802801e-02 0.0000000000000000e+00  4.6415062993986164e-02 4.1718032830716463e-02 0.0000000000000000e+00  0.0000000000000000e+00 0.0000000000000000e+00 0.0000000000000000e+00  2.4652749489398211e-02 -2.8343595392373310e-02 0.0000000000000000e+00  3.5098337989191972e-02 -3.7414886831197272e-02 0.0000000000000000e+00  -5.1138615076926908e-02 7.6763595732762438e-02 0.0000000000000000e+00  -7.2771271177870411e-02 8.2073665910329871e-02 0.0000000000000000e+00  4.9779787471616370e-02 7.5468916728609045e-02 0.0000000000000000e+00  7.2051008295900262e-02 8.2776821528161529e-02 0.0000000000000000e+00  -7.0265546094648662e-02 2.9113516228958813e-02 0.0000000000000000e+00  -7.2027544164497304e-02 7.1689899492689210e-02 0.0000000000000000e+00  0.0000000000000000e+00 0.0000000000000000e+00 0.0000000000000000e+00  8.3392807678835432e-02 5.8780317377717273e-02 0.0000000000000000e+00  -1.5589341175863206e-02 -3.1634642370435222e-02 0.0000000000000000e+00  7.1885683432710068e-02 7.1315112681569023e-02 0.0000000000000000e+00  -5.2990034663259702e-02 5.1822145735116468e-02 0.0000000000000000e+00  -2.3299946108740477e-02 -1.8880206030734325e-02 0.0000000000000000e+00  -3.7060978011578920e-02 -2.3717008764618127e-02 0.0000000000000000e+00  4.6533261798736569e-02 -8.5004342418067286e-02 0.0000000000000000e+00  5.0683087568882304e-02 5.0871103004337281e-02 0.0000000000000000e+00  1.0047149559138211e-02 1.0014386684076984e-02 0.0000000000000000e+00  -1.4577816496460753e-02 -6.5190584994390580e-02 0.0000000000000000e+00  3.0378957448741157e-02 -2.7249713908032165e-02 0.0000000000000000e+00  8.0721011770684747e-02 3.6382816395633330e-02 0.0000000000000000e+00  -1.8402687046185182e-02 2.1496009096283825e-02 0.0000000000000000e+00  -3.9114900463944960e-02 3.9240632855222654e-02 0.0000000000000000e+00  -5.4793369221184662e-02 5.6984697442384810e-02 0.0000000000000000e+00  -1.6939615238401290e-02 -2.0619125887970921e-02 0.0000000000000000e+00  0.0000000000000000e+00 0.0000000000000000e+00 0.0000000000000000e+00  -2.2627109186702937e-02 1.9565186742249753e-02 0.0000000000000000e+00  3.3857839388643640e-04 -7.1557332425749756e-02 0.0000000000000000e+00  5.9585345147652103e-05 7.2973810005229581e-02 0.0000000000000000e+00  -3.4469105803650112e-02 -3.5289976250883676e-02 0.0000000000000000e+00  -9.5476323714449612e-02 9.1795384390292764e-02 0.0000000000000000e+00  3.2083853178455489e-02 3.5388557252015000e-02 0.0000000000000000e+00  0.0000000000000000e+00 0.0000000000000000e+00 0.0000000000000000e+00  -2.0461503328889338e-02 -1.6875760377850955e-02 0.0000000000000000e+00  7.2053864298695702e-02 -2.8636916434478119e-02 0.0000000000000000e+00  3.5557213782888668e-02 -1.4859680699822244e-02 0.0000000000000000e+00  2.9341921492872094e-02 -7.7212305687288471e-02 0.0000000000000000e+00  0.0000000000000000e+00 0.0000000000000000e+00 0.0000000000000000e+00  2.6572406823825057e-02 2.1988068059711881e-02 0.0000000000000000e+00  0.0000000000000000e+00 0.0000000000000000e+00 0.0000000000000000e+00  -3.4274549423468345e-02 1.5750829628219911e-02 0.0000000000000000e+00  9.5250758125928287e-02 9.2394969713056288e-02 0.0000000000000000e+00  1.9582697800008136e-02 -2.7205967586956554e-02 0.0000000000000000e+00  4.8371230528754992e-02 -5.4653356261429920e-02 0.0000000000000000e+00  1.4261625089692989e-02 7.0692950123433601e-02 0.0000000000000000e+00  -3.0205332596134130e-02 7.2294734333779934e-02 0.0000000000000000e+00  -8.2048741339209016e-02 -6.1503970661082930e-02 0.0000000000000000e+00  0.0000000000000000e+00 0.0000000000000000e+00 0.0000000000000000e+00  -8.0746928006437291e-02 6.4873496242592602e-02 0.0000000000000000e+00  0.0000000000000000e+00 0.0000000000000000e+00 0.0000000000000000e+00  0.0000000000000000e+00 0.0000000000000000e+00 0.0000000000000000e+00  -5.5470706646987618e-02 -5