<?xml version="1.0"?>
<VTKFile type="UnstructuredGrid"  version="0.1"  >
<UnstructuredGrid>
<Piece  NumberOfPoints="1109" NumberOfCells="1972">
<Points>
<DataArray  type="Float64"  NumberOfComponents="3"  format="ascii">0 1 0  0 0 0  1 0 0  1 1 0  0.8968458805257912 0.5501332934257217 0  0.9 0.5 0  0.8968458805257911 0.4498667065742781 0  0.8874332644514524 0.4005240451340579 0  0.8719105943553006 0.3527501789261288 0  0.8505226720175453 0.3072985303593135 0  0.823606797749979 0.2648858990830106 0  0.7915874509685645 0.2261811576285244 0  0.7549695958994758 0.1917947028896841 0  0.7143307179915988 0.162268829799194 0  0.6703117166260287 0.138069179013592 0  0.6236067977499788 0.1195773934819385 0  0.5749525258342897 0.1070850997085245 0  0.5251162078117251 0.1007893086286913 0  0.4748837921882747 0.1007893086286913 0  0.4250474741657101 0.1070850997085245 0  0.376393202250021 0.1195773934819386 0  0.3296882833739712 0.1380691790135921 0  0.2856692820084015 0.1622688297991939 0  0.2450304041005242 0.1917947028896843 0  0.2084125490314353 0.2261811576285246 0  0.1763932022500209 0.2648858990830109 0  0.1494773279824546 0.3072985303593139 0  0.1280894056446994 0.3527501789261288 0  0.1125667355485475 0.4005240451340581 0  0.1031541194742088 0.4498667065742783 0  0.09999999999999998 0.5 0  0.1031541194742089 0.5501332934257218 0  0.1125667355485476 0.5994759548659421 0  0.1280894056446995 0.6472498210738713 0  0.1494773279824546 0.6927014696406861 0  0.176393202250021 0.7351141009169893 0  0.2084125490314355 0.7738188423714756 0  0.2450304041005241 0.8082052971103157 0  0.2856692820084012 0.837731170200806 0  0.3296882833739709 0.8619308209864078 0  0.3763932022500212 0.8804226065180615 0  0.4250474741657101 0.8929149002914756 0  0.4748837921882746 0.8992106913713087 0  0.5251162078117254 0.8992106913713087 0  0.5749525258342899 0.8929149002914755 0  0.623606797749979 0.8804226065180614 0  0.6703117166260291 0.8619308209864078 0  0.7143307179915986 0.8377311702008061 0  0.754969595899476 0.8082052971103157 0  0.7915874509685646 0.7738188423714755 0  0.823606797749979 0.7351141009169893 0  0.8505226720175454 0.6927014696406861 0  0.8719105943553006 0.6472498210738712 0  0.8874332644514524 0.599475954865942 0  0.5 1 0  0 0.5 0  1 0.5 0  0.5 0 0  0.75 1 0  0.25 1 0  0 0.75 0  0 0.25 0  1 0.25 0  1 0.75 0  0.75 0 0  0.25 0 0  0.625 1 0  0.375 1 0  0 0.625 0  0 0.375 0  1 0.375 0  1 0.625 0  0.625 0 0  0.375 0 0  0.125 0 0  0.875 0 0  1 0.125 0  0 0.875 0  0.125 1 0  0.875 1 0  0 0.125 0  1 0.875 0  0.1443946775413214 0.1213187937376868 0  0.8556053224586788 0.8786812062623132 0  0.8556053224586785 0.1213187937376867 0  0.1275360334547992 0.8724639665452008 0  0.9261623581710797 0.1875 0  0.09234641934319709 0.2082689144241477 0  0.9076535806568029 0.7917310855758523 0  0.08970099689351971 0.7603836651344988 0  0.2182130526099624 0.9079579669686324 0  0.07086411995581518 0.07086411995581518 0  1 0.0625 0  0.9375 0 0  0.0625 1 0  0 0.9375 0  0.9291358800441849 0.9291358800441849 0  0.7304772975931939 0.08076335202639119 0  0.2695227024068061 0.08076335202639115 0  0.7697819974699807 0.9105968468121929 0  1 0.6875 0  1 0.3125 0  0.06784168511078095 0.2966417331842567 0  0 0.6875 0  0.1875 0 0  0.8125 0 0  0.9212459744619301 0.2681742056774029 0  0.3125 1 0  0.6875 1 0  0.922097136530977 0.07790286346902295 0  0.9261304603587264 0.7150772115644075 0  0 0.8125 0  0.07432186328509671 0.9256781367149033 0  0.06317182982585627 0.84375 0  0.8548473925302104 0.1928285354262928 0  0.2914274450692525 0.9272721924131209 0  0.6710199663399635 0.9319471281137308 0  0.9226595291420543 0.8597667107019437 0  0.0773404708579461 0.1402332892980563 0  0.8125 1 0  0.06054886616517211 0.65625 0  0.9362657027224049 0.3336129027547622 0  0.1841195715992005 0.8363784907223111 0  0.6625377124131507 0.06023416665880475 0  0.3125 0 0  0.34375 0.06016090820395464 0  0.2153846372786545 0.1270381302276244 0  0.8024953780019808 0.07187189600048093 0  0.1546395545758083 0.9367961467266345 0  0.5625 1 0  0.4375 0 0  0.4375 1 0  0.5625 0 0  0.1844766880788185 0.06724298999790632 0  0.9369725282473387 0.6419809811402504 0  0.791523351719164 0.1369023590147849 0  0.8285961364903059 0.9374018659319692 0  1 0.4375 0  0 0.4375 0  1 0.5625 0  0 0.5625 0  0 0.3125 0  1 0.8125 0  0.0625 0 0  0 0.0625 0  0 0.1875 0  1 0.1875 0  1 0.9375 0  0.9375 1 0  0.6875 0 0  0.1875 1 0  0.8126465958421825 0.8329348088176629 0  0.1550798535647612 0.1867680086445373 0  0.8631981559835366 0.06032295929500282 0  0.1449089435554358 0.7884432695884597 0  0.3538206140027237 0.9399564250283491 0  0.944997661525766 0.4151121561005554 0  0.05500233847423393 0.5848878438994446 0  0.0520912947951912 0.40625 0  0.59375 0.05063263303723638 0  0.6113142584645842 0.9411585052804305 0  0.402402637527157 0.05243074290023167 0  0.05237021982595785 0.7146869946988353 0  0.9514280734197595 0.53125 0  0.04857192658024048 0.46875 0  0.1138995451272664 0.2618291859344329 0  0.1276043399716366 0.06698080255494471 0  0.9496852823490703 0.5873315358652272 0  0.7164226875694513 0.8936714072472519 0  0.728445758907293 0.9483406189827143 0  0.05037626111865807 0.3500677784994627 0  0.9425695009311538 0.1320174568820216 0  0.4108317852857326 0.9488345682840208 0  0.5398628985995173 0.04893133705064829 0  0.46875 0.04573672429098317 0  0.4652931800096448 0.9529811055869081 0  0.53125 0.9542632757090168 0  0.8785971272885281 0.7441734326495726 0  0.8518416617605847 0.7931754903661554 0  0.04183404050302509 0.78125 0  0.7612395846848441 0.8595654412716175 0  0.2310588911243982 0.8579303197600836 0  0.04148050284378633 0.21875 0  0.9494864361787021 0.7612608042848362 0  0.9500000000000001 0.4721339993173143 0  0.04999999999999998 0.5278660006826856 0  0.8781553628189985 0.9246252444972441 0  0.8731991046476956 0.2435858407989878 0  0.09811738497342513 0.6912987895906199 0  0.78125 0.9600244726998853 0  0.09951704281279977 0.8094116423849811 0  0.1723930843372325 0.8914409560171174 0  0.21875 0.9592823984315264 0  0.8808053857873319 0.8333253975559158 0  0.8963977713581862 0.1485308906960134 0  0.9538351164349618 0.2296733193971382 0  0.9502525126806526 0.8180081280125184 0  0.2312490385075739 0.04727387874777968 0  0.2715914187620846 0.8835921407480765 0  0.8075381809024645 0.880775593205643 0  0.71875 0.03518728418751645 0  0.28125 0.03518728418751642 0  0.7646042202168328 0.04444036111707996 0  0.9023329991729737 0.03666350737326187 0  0.03401531498238862 0.15625 0  0.1188530488980251 0.1590855287670435 0  0.9585274478449393 0.2940602659505009 0  0.122777080947294 0.7293581095092172 0  0.9670375667902916 0.09375 0  0.2005134857209875 0.1810792546569654 0  0.04567406045797464 0.8878541658538743 0  0.09375 0.966869578205468 0  0.1562008719445321 0.03232788333739163 0  0.8953932105853648 0.3139420780646932 0  0.7990572522972532 0.1815363722387022 0  0.0968875242781685 0.03463409819727443 0  0.03223722036876893 0.09375 0  0.9004223587754672 0.9633108159792649 0  0.9677627796312311 0.90625 0  0.1015654613822437 0.1029847255361322 0  0.9612688796250578 0.9612688796250578 0  0 0.03125 0  0.03125 0 0  0.04144949962501476 0.9585505003749852 0  0.9558898336496962 0.04411016635030385 0  0.9068917513393455 0.6748714165270275 0  0.1368346895292699 0.830580202512584 0  0.1325215314767946 0.2232188145997174 0  0.07053058491102715 0.2523250971165124 0  0.28125 1 0  0.2618257196382527 0.9585732837283344 0  0.08628220552312613 0.8784418410901162 0  0.6885162251696433 0.09694521726220126 0  0.7451861497985837 0.1260293295250874 0  0.313422114933215 0.09491014745286984 0  0.2604190570795071 0.1249189143540631 0  0.9242490330121279 0.3761177923443456 0  0.8294827367589617 0.1534479284350518 0  0 0.28125 0  0.1085704015556412 0.3026527142683792 0  0.6454377779583714 0.9642341400769985 0  0.1735682150935896 0.1501527832362767 0  0.9118639212665761 0.2270478094042325 0  0.9675029085737417 0.7231519194735394 0  0.9540854621793986 0.6818714685662951 0  0.3411855214203015 0.9011195850022233 0  0.2203778463487443 0.08657146517086198 0  0.04103470738435357 0.04103470738435357 0  0.5692124642834736 0.9350661676969988 0  0.1143804055696223 0.9319617439078584 0  0.08871656954519293 0.3663659127109965 0  0.9630811790855398 0.168250321868886 0  0.8941478109554366 0.1077225817667272 0  0.7685953432959879 0.09339992494635127 0  0.9613334331586147 0.8673647296762501 0  0.84375 0 0  0.8276419188889859 0.03874003995670209 0  0.4987074584280061 0.9312004428379874 0  0.4999999999999999 0.07012294039149713 0  0.906353444207591 0.8962759602721756 0  0.8317000502825128 0.2255938539236174 0  0.060982293117454 0.1847248153131282 0  0.84375 1 0  0.8601163332513452 0.9625346208269469 0  0.07696867235812772 0.6190771663714262 0  0.03866375363197156 0.624370156890833 0  0.386395970129115 0.9182613855572013 0  0.59375 1 0  0.03763634871355165 0.2725691404761272 0  1 0.34375 0  0.9619513789393942 0.3638256452123659 0  0.1705891391383945 0.2215719862571997 0  0.2993345649440622 0.9643978827856838 0  0.2548390693531445 0.917543736811073 0  0.4376701674058487 0.06983678836603174 0  0.6249880952696493 0.07804203554412367 0  0.8891633930840495 0.7080603551933189 0  0 0.65625 0  0.8857454763750297 0.2783067670731572 0  1 0.65625 0  0 0.59375 0  0.9147359581367025 0.7498372322849914 0  0.34375 1 0  0.08128436453222096 0.3306040779845135 0  0.8370204413255111 0.08803482611562097 0  0.4399236117509409 0.9264634199869409 0  0.3763243110806382 0.08093997073896844 0  1 0.78125 0  0.3058827875685617 0.8943637152968825 0  0.891027260700638 0.1971556622156984 0  0.1814462944911871 0.9630031969500565 0  0.1812917788273262 0.1067749496803429 0  0.2291605611046911 0.1598957180171764 0  0.630525566101238 0.03837025329843378 0  0.03363261960646192 0.92260900189631 0  0.2960793559902691 0.1260912307633523 0  0.03663553287191564 0.8179172045954961 0  0.02996523389584273 0.8560987956667739 0  0.09880166525369549 0.8450583124835681 0  0.6923212173088138 0.150169004406393 0  0.502
[...]
<PointData  Vectors="u"> 
<DataArray  type="Float64"  Name="u"  NumberOfComponents="3" format="ascii">0.0000000000000000e+00 0.0000000000000000e+00 0.0000000000000000e+00  0.0000000000000000e+00 0.0000000000000000e+00 0.0000000000000000e+00  0.0000000000000000e+00 0.0000000000000000e+00 0.0000000000000000e+00  0.0000000000000000e+00 0.0000000000000000e+00 0.0000000000000000e+00  -3.2061230384513431e-02 -6.2966155132602852e-03 0.0000000000000000e+00  -3.2159022791809981e-02 -5.7721145647660482e-05 0.0000000000000000e+00  -3.2026571660554309e-02 6.3417895876783240e-03 0.0000000000000000e+00  -3.1294973317406632e-02 1.2466317693628139e-02 0.0000000000000000e+00  -2.9944601820873749e-02 1.7908269661814462e-02 0.0000000000000000e+00  -2.8345931242267922e-02 2.1916674301855829e-02 0.0000000000000000e+00  -2.6956573440043211e-02 2.4250452341399161e-02 0.0000000000000000e+00  -2.5926474516876463e-02 2.5527075082482569e-02 0.0000000000000000e+00  -2.4998012989909387e-02 2.6402694957901571e-02 0.0000000000000000e+00  -2.3305079959634219e-02 2.7593982452417565e-02 0.0000000000000000e+00  -2.0151436381107220e-02 2.9131989803455802e-02 0.0000000000000000e+00  -1.5314966709338497e-02 3.0671306111924718e-02 0.0000000000000000e+00  -9.5468002898921687e-03 3.1690981799953194e-02 0.0000000000000000e+00  -3.2393476717335347e-03 3.2217684942071757e-02 0.0000000000000000e+00  3.2422142661834470e-03 3.2177926865842268e-02 0.0000000000000000e+00  9.5174434579363074e-03 3.1699021411779903e-02 0.0000000000000000e+00  1.5313895996485152e-02 3.0668385015636877e-02 0.0000000000000000e+00  2.0095535158540730e-02 2.9183272904542954e-02 0.0000000000000000e+00  2.3306774665916435e-02 2.7584980214861051e-02 0.0000000000000000e+00  2.5017308664613738e-02 2.6381611721100540e-02 0.0000000000000000e+00  2.5931035213835746e-02 2.5518027060340117e-02 0.0000000000000000e+00  2.6920614800648494e-02 2.4305622537188161e-02 0.0000000000000000e+00  2.8354198638728765e-02 2.1934429718681359e-02 0.0000000000000000e+00  2.9980097940533364e-02 1.7932864316389043e-02 0.0000000000000000e+00  3.1285868487867956e-02 1.2474200345974238e-02 0.0000000000000000e+00  3.2041879371616760e-02 6.3407506325480548e-03 0.0000000000000000e+00  3.2190476344014965e-02 -8.8345022097652479e-05 0.0000000000000000e+00  3.1957418060657265e-02 -6.3817212243306252e-03 0.0000000000000000e+00  3.1265595513527221e-02 -1.2448071687436552e-02 0.0000000000000000e+00  2.9920835489043666e-02 -1.7908088862291428e-02 0.0000000000000000e+00  2.8326478493917673e-02 -2.1894865308301686e-02 0.0000000000000000e+00  2.6937380379912293e-02 -2.4255916564347373e-02 0.0000000000000000e+00  2.5850839254634324e-02 -2.5495544325779794e-02 0.0000000000000000e+00  2.4934687534035709e-02 -2.6399213693907055e-02 0.0000000000000000e+00  2.3342192622817299e-02 -2.7577908127726161e-02 0.0000000000000000e+00  2.0125930084968581e-02 -2.9132628775742842e-02 0.0000000000000000e+00  1.5299944854834942e-02 -3.0667098038899856e-02 0.0000000000000000e+00  9.4958869134897234e-03 -3.1753630168776484e-02 0.0000000000000000e+00  3.2193175393786977e-03 -3.2216789136760154e-02 0.0000000000000000e+00  -3.2725234498199147e-03 -3.2176351361116434e-02 0.0000000000000000e+00  -9.5234614293866621e-03 -3.1700366701445735e-02 0.0000000000000000e+00  -1.5276027095678164e-02 -3.0686647943404456e-02 0.0000000000000000e+00  -2.0059307543798206e-02 -2.9158374784811283e-02 0.0000000000000000e+00  -2.3361519461280879e-02 -2.7507960001056913e-02 0.0000000000000000e+00  -2.4967864132327773e-02 -2.6337773226158361e-02 0.0000000000000000e+00  -2.5949759903378573e-02 -2.5463582897012355e-02 0.0000000000000000e+00  -2.6888347407343288e-02 -2.4265174936269056e-02 0.0000000000000000e+00  -2.8307770472721903e-02 -2.1916145854659584e-02 0.0000000000000000e+00  -2.9915879741188037e-02 -1.7892078755761501e-02 0.0000000000000000e+00  -3.1277035671934121e-02 -1.2479221969666290e-02 0.0000000000000000e+00  0.0000000000000000e+00 0.0000000000000000e+00 0.0000000000000000e+00  0.0000000000000000e+00 0.0000000000000000e+00 0.0000000000000000e+00  0.0000000000000000e+00 0.0000000000000000e+00 0.0000000000000000e+00  0.0000000000000000e+00 0.0000000000000000e+00 0.0000000000000000e+00  0.0000000000000000e+00 0.0000000000000000e+00 0.0000000000000000e+00  0.0000000000000000e+00 0.0000000000000000e+00 0.0000000000000000e+00  0.0000000000000000e+00 0.0000000000000000e+00 0.0000000000000000e+00  0.0000000000000000e+00 0.0000000000000000e+00 0.0000000000000000e+00  0.0000000000000000e+00 0.0000000000000000e+00 0.0000000000000000e+00  0.0000000000000000e+00 0.0000000000000000e+00 0.0000000000000000e+00  0.0000000000000000e+00 0.0000000000000000e+00 0.0000000000000000e+00  0.0000000000000000e+00 0.0000000000000000e+00 0.0000000000000000e+00  0.0000000000000000e+00 0.0000000000000000e+00 0.0000000000000000e+00  0.0000000000000000e+00 0.0000000000000000e+00 0.0000000000000000e+00  0.0000000000000000e+00 0.0000000000000000e+00 0.0000000000000000e+00  0.0000000000000000e+00 0.0000000000000000e+00 0.0000000000000000e+00  0.0000000000000000e+00 0.0000000000000000e+00 0.0000000000000000e+00  0.0000000000000000e+00 0.0000000000000000e+00 0.0000000000000000e+00  0.0000000000000000e+00 0.0000000000000000e+00 0.0000000000000000e+00  0.0000000000000000e+00 0.0000000000000000e+00 0.0000000000000000e+00  0.0000000000000000e+00 0.0000000000000000e+00 0.0000000000000000e+00  0.0000000000000000e+00 0.0000000000000000e+00 0.0000000000000000e+00  0.0000000000000000e+00 0.0000000000000000e+00 0.0000000000000000e+00  0.0000000000000000e+00 0.0000000000000000e+00 0.0000000000000000e+00  0.0000000000000000e+00 0.0000000000000000e+00 0.0000000000000000e+00  0.0000000000000000e+00 0.0000000000000000e+00 0.0000000000000000e+00  0.0000000000000000e+00 0.0000000000000000e+00 0.0000000000000000e+00  0.0000000000000000e+00 0.0000000000000000e+00 0.0000000000000000e+00  1.2445304349490961e-02 1.2150905871012673e-02 0.0000000000000000e+00  -1.2440911534054444e-02 -1.2188029835120568e-02 0.0000000000000000e+00  -1.2429247221784982e-02 1.2133940935878725e-02 0.0000000000000000e+00  1.1666037916427013e-02 -1.1687838358278583e-02 0.0000000000000000e+00  -9.2373860554144527e-03 1.0202341764263469e-02 0.0000000000000000e+00  1.2247442889163334e-02 1.2960907884307342e-02 0.0000000000000000e+00  -1.2252245037992932e-02 -1.2901801224431082e-02 0.0000000000000000e+00  1.3359010279062031e-02 -1.3501540314047244e-02 0.0000000000000000e+00  1.3255229207045511e-02 -1.2619527475570618e-02 0.0000000000000000e+00  4.9897458362606253e-03 4.9912342988050447e-03 0.0000000000000000e+00  0.0000000000000000e+00 0.0000000000000000e+00 0.0000000000000000e+00  0.0000000000000000e+00 0.0000000000000000e+00 0.0000000000000000e+00  0.0000000000000000e+00 0.0000000000000000e+00 0.0000000000000000e+00  0.0000000000000000e+00 0.0000000000000000e+00 0.0000000000000000e+00  -5.0131526660452223e-03 -4.9852481318614760e-03 0.0000000000000000e+00  -1.2874368950633168e-02 1.3504851317824132e-02 0.0000000000000000e+00  1.2897277856050878e-02 1.3528087053428664e-02 0.0000000000000000e+00  -1.3273880393241752e-02 -1.2848340704012964e-02 0.0000000000000000e+00  0.0000000000000000e+00 0.0000000000000000e+00 0.0000000000000000e+00  0.0000000000000000e+00 0.0000000000000000e+00 0.0000000000000000e+00  1.2729310397392566e-02 1.1103066288932303e-02 0.0000000000000000e+00  0.0000000000000000e+00 0.0000000000000000e+00 0.0000000000000000e+00  0.0000000000000000e+00 0.0000000000000000e+00 0.0000000000000000e+00  0.0000000000000000e+00 0.0000000000000000e+00 0.0000000000000000e+00  -1.3124698992415253e-02 1.2580588038637748e-02 0.0000000000000000e+00  0.0000000000000000e+00 0.0000000000000000e+00 0.0000000000000000e+00  0.0000000000000000e+00 0.0000000000000000e+00 0.0000000000000000e+00  -5.6927044265451948e-03 5.6903911220313602e-03 0.0000000000000000e+00  -1.3172964077560630e-02 -1.2015771517940078e-02 0.0000000000000000e+00  0.0000000000000000e+00 0.0000000000000000e+00 0.0000000000000000e+00  5.3671119188561048e-03 -5.3718874153907102e-03 0.0000000000000000e+00  7.1188176931591927e-03 -8.0399954034263144e-03 0.0000000000000000e+00  -1.7203879602086376e-02 1.7329198177647689e-02 0.0000000000000000e+00  1.1815584505196198e-02 -1.3308195260398246e-02 0.0000000000000000e+00  -1.0735528317674638e-02 -1.4452459147769239e-02 0.0000000000000000e+00  -8.0705779976475590e-03 -8.8318662398772577e-03 0.0000000000000000e+00  8.0917727510491227e-03 8.7459878573291263e-03 0.0000000000000000e+00  0.0000000000000000e+00 0.0000000000000000e+00 0.0000000000000000e+00  1.3569986290476019e-02 -9.3425595127617309e-03 0.0000000000000000e+00  -1.3705773935671019e-02 1.0047220591803846e-02 0.0000000000000000e+00  1.8293410304099738e-02 -1.8297132600615367e-02 0.0000000000000000e+00  -9.4679876411921660e-03 1.3187916291044715e-02 0.0000000000000000e+00  0.0000000000000000e+00 0.0000000000000000e+00 0.0000000000000000e+00  9.2629353994634431e-03 1.3481838797455631e-02 0.0000000000000000e+00  1.6860814792915638e-02 1.6743565268800050e-02 0.0000000000000000e+00  -1.0268613367550075e-02 9.2923771400171065e-03 0.0000000000000000e+00  7.9972098750168436e-03 -7.0791931210046977e-03 0.0000000000000000e+00  0.0000000000000000e+00 0.0000000000000000e+00 0.0000000000000000e+00  0.0000000000000000e+00 0.0000000000000000e+00 0.0000000000000000e+00  0.0000000000000000e+00 0.0000000000000000e+00 0.0000000000000000e+00  0.0000000000000000e+00 0.0000000000000000e+00 0.0000000000000000e+00  9.2944657574448829e-03 8.3554216013087181e-03 0.0000000000000000e+00  -1.4875781434815100e-02 -9.2877338579161837e-03 0.0000000000000000e+00  -1.7482528295826982e-02 1.7346446237795306e-02 0.0000000000000000e+00  -8.4466069867128457e-03 -7.4645760101823477e-03 0.0000000000000000e+00  0.0000000000000000e+00 0.0000000000000000e+00 0.0000000000000000e+00  0.0000000000000000e+00 0.0000000000000000e+00 0.0000000000000000e+00  0.0000000000000000e+00 0.0000000000000000e+00 0.0000000000000000e+00  0.0000000000000000e+00 0.0000000000000000e+00 0.0000000000000000e+00  0.0000000000000000e+00 0.0000000000000000e+00 0.0000000000000000e+00  0.0000000000000000e+00 0.0000000000000000e+00 0.0000000000000000e+00  0.0000000000000000e+00 0.0000000000000000e+00 0.0000000000000000e+00  0.0000000000000000e+00 0.0000000000000000e+00 0.0000000000000000e+00  0.0000000000000000e+00 0.0000000000000000e+00 0.0000000000000000e+00  0.0000000000000000e+00 0.0000000000000000e+00 0.0000000000000000e+00  0.0000000000000000e+00 0.0000000000000000e+00 0.0000000000000000e+00  0.0000000000000000e+00 0.0000000000000000e+00 0.0000000000000000e+00  0.0000000000000000e+00 0.0000000000000000e+00 0.0000000000000000e+00  0.0000000000000000e+00 0.0000000000000000e+00 0.0000000000000000e+00  -1.8861222626588486e-02 -1.8834438369236740e-02 0.0000000000000000e+00  1.7767773880161028e-02 1.7826865810172003e-02 0.0000000000000000e+00  -7.1696647069048446e-03 6.3525280028861970e-03 0.0000000000000000e+00  1.8453468729614286e-02 -1.8429753629099720e-02 0.0000000000000000e+00  9.0118489465923178e-03 -1.3961412776543945e-02 0.0000000000000000e+00  -1.5333920815745486e-02 5.7172061001636498e-03 0.0000000000000000e+00  1.5381810208070086e-02 -5.6542470613115308e-03 0.0000000000000000e+00  1.4218606954092704e-02 5.8498485269537380e-03 0.0000000000000000e+00  -5.6429328502389121e-03 1.3809086282718062e-02 0.0000000000000000e+00  -7.4780570158535162e-03 -1.5322287856815248e-02 0.0000000000000000e+00  6.0498067188958365e-03 1.4193873517893699e-02 0.0000000000000000e+00  9.3761492201904165e-03 -8.8465286525548463e-03 0.0000000000000000e+00  -1.4769663537728687e-02 -2.0325065152492256e-03 0.0000000000000000e+00  1.4757962404861004e-02 1.9974432219277915e-03 0.0000000000000000e+00  1.8137142950944086e-02 1.7034053031722275e-02 0.0000000000000000e+00  7.3976887099777098e-03 6.7241189120362836e-03 0.0000000000000000e+00  -1.3947107206443812e-02 -5.3545681699125732e-03 0.0000000000000000e+00  -1.6353065120074221e-02 -1.8608823126620981e-02 0.0000000000000000e+00  -8.7205525692864785e-03 -8.8285329770774554e-03 0.0000000000000000e+00  1.1537104095822625e-02 7.7810484175360921e-03 0.0000000000000000e+00  -5.9618957474627211e-03 6.7425514907050914e-03 0.0000000000000000e+00  5.5100981452528078e-03 -1.4133914647528409e-02 0.0000000000000000e+00  -2.5503869250622672e-03 1.4757093150715819e-02 0.0000000000000000e+00  1.8644214115181349e-03 1.3858116644801707e-02 0.0000000000000000e+00  2.1122755418063722e-03 -1.4275768887575426e-02 0.0000000000000000e+00  -1.8592316827109100e-03 -1.3870604062504273e-02 0.0000000000000000e+00  -1.8761602259940967e-02 -1.7720390966936474e-02 0.0000000000000000e+00  -1.8477339331241981e-02 -1.8489287289739663e-02 0.0000000000000000e+00  5.9518621334649557e-03 -6.7449773979233246e-03 0.0000000000000000e+00  -1.9305338698337348e-02 -1.9980085539217422e-02 0.0000000000000000e+00  1.9109475559694823e-02 -1.9562101894545960e-02 0.0000000000000000e+00  5.8989581568854458e-03 6.6799688089258860e-03 0.0000000000000000e+00  -7.6315781757502034e-03 -8.2709448875099307e-03 0.0000000000000000e+00  -1.5266220663325607e-02 1.7812711459272758e-03 0.0000000000000000e+00  1.5299568481376322e-02 -1.7748112061054843e-03 0.0000000000000000e+00  -7.8610000982596798e-03 -7.3172110952042842e-03 0.0000000000000000e+00  -1.8606828574426044e-02 1.7971331647569599e-02 0.0000000000000000e+00  1.9118403204230198e-02 -1.5260245942755204e-02 0.0000000000000000e+00  -6.4934010160026282e-03 -5.6856763610477002e-03 0.0000000000000000e+00  1.2278416778710260e-02 -1.3034950417717735e-02 0.0000000000000000e+00  1.3026289480332250e-02 -1.2402861728442101e-02 0.0000000000000000e+00  6.5831629567472526e-03 -5.7902055404027049e-03 0.0000000000000000e+00  -1.3176956089020258e-02 -1.3632657857761446e-02 0.0000000000000000e+00  -1.0816939077299916e-02 1.1375177352453140e-02 0.0000000000000000e+00  -6.7704047465862770e-03 7.5058148832139564e-03 0.0000000000000000e+00  -6.2191433265612042e-03 -7.1947448817722874e-03 0.0000000000000000e+00  7.6881160710186632e-03 6.9559006377505608e-03 0.0000000000000000e+00  1.7522426198414296e-02 -1.9272029830379220e-02 0.0000000000000000e+00  -1.4999952677844521e-02 -1.4498255224374389e-02 0.0000000000000000e+00  -6.1204185833316060e-03 6.2205983365290936e-03 0.0000000000000000e+00  6.1411066801647278e-03 6.2101718119508880e-03 0.0000000000000000e+00  -7.3246135635673063e-03 6.6326447315474841e-03 0.0000000000000000e+00  -3.8604930169720457e-03 3.3445518087298230e-03 0.0000000000000000e+00  3.9670451049134562e-03 4.7386982842216015e-03 0.0000000000000000e+00  1.2744429720953994e-02 1.3209193378859507e-02 0.0000000000000000e+00  -7.7296238260389115e-03 7.0961784911229139e-03 0.0000000000000000e+00  2.0169576954530043e-02 -1.8263332762893131e-02 0.0000000000000000e+00  -2.9611143016850757e-03 3.4376287863058714e-03 0.0000000000000000e+00  2.0977242253065465e-02 2.1071961570271924e-02 0.0000000000000000e+00  4.3993967781835886e-03 -5.0263246559433790e-03 0.0000000000000000e+00  3.4312136763086538e-03 -2.9692571211454065e-03 0.0000000000000000e+00  4.5286162442547745e-03 3.7404680224598498e-03 0.0000000000000000e+00  -2.0743065426469962e-02 1.6067336349181473e-02 0.0000000000000000e+00  -2.1039785443920260e-02 2.1160974668059915e-02 0.0000000000000000e+00  3.6386743911634837e-03 3.1560790977456679e-03 0.0000000000000000e+00  2.8906541542851778e-03 3.3275329449927427e-03 0.0000000000000000e+00  -3.8762940467504518e-03 -3.3919875118101879e-03 0.0000000000000000e+00  -2.8556374570854843e-03 -3.3308155937282835e-03 0.0000000000000000e+00  8.4682023040633589e-03 8.5063500786181044e-03 0.0000000000000000e+00  -2.1327880923503626e-03 -2.1283559213457199e-03 0.0000000000000000e+00  0.0000000000000000e+00 0.0000000000000000e+00 0.0000000000000000e+00  0.0000000000000000e+00 0.0000000000000000e+00 0.0000000000000000e+00  2.3135069339006906e-03 -2.3066165893214285e-03 0.0000000000000000e+00  -2.5262622992527845e-03 2.5264949980575700e-03 0.0000000000000000e+00  -1.9387250147978780e-02 -1.4342703931617382e-02 0.0000000000000000e+00  1.4920617448696090e-02 -1.5207823116872165e-02 0.0000000000000000e+00  1.7871077373965500e-02 1.7714372037358529e-02 0.0000000000000000e+00  1.1098900789977885e-02 1.1246172836132962e-02 0.0000000000000000e+00  0.0000000000000000e+00 0.0000000000000000e+00 0.0000000000000000e+00  7.1045734375624709e-03 -6.8402156377415568e-03 0.0000000000000000e+00  8.1715364965509619e-03 -8.5701996086858089e-03 0.0000000000000000e+00  -1.5071329602469116e-02 1.9123446091776890e-02 0.0000000000000000e+00  -1.8270164482209098e-02 1.9362579341827068e-02 0.0000000000000000e+00  1.4776302607438483e-02 1.8847114460025096e-02 0.0000000000000000e+00  1.8275536145639756e-02 1.9609033262199413e-02 0.0000000000000000e+00  -1.9114496097182583e-02 1.0130086877653337e-02 0.0000000000000000e+00  -1.6521524174499584e-02 1.6429040095194688e-02 0.0000000000000000e+00  0.0000000000000000e+00 0.0000000000000000e+00 0.0000000000000000e+00  2.0523151508924514e-02 1.6624121117241972e-02 0.0000000000000000e+00  -5.5370311350169234e-03 -8.3054903082045422e-03 0.0000000000000000e+00  1.6496620465419151e-02 1.6355817451346896e-02 0.0000000000000000e+00  -1.2523821899712110e-02 1.3024252154547954e-02 0.0000000000000000e+00  -5.6536795953677620e-03 -5.6959365003176384e-03 0.0000000000000000e+00  -9.3119869128212695e-03 -7.6803303040108017e-03 0.0000000000000000e+00  1.4625189193528364e-02 -2.1995249920781498e-02 0.0000000000000000e+00  1.2627221223264843e-02 1.2008665355982152e-02 0.0000000000000000e+00  2.2993718048296510e-03 2.2844471702198966e-03 0.0000000000000000e+00  -5.5521271254679906e-03 -1.8917265642483101e-02 0.0000000000000000e+00  6.9535649973358656e-03 -6.4127609699479891e-03 0.0000000000000000e+00  2.1708117583001802e-02 1.2207112857342634e-02 0.0000000000000000e+00  -4.4402029634721110e-03 5.2388966359376201e-03 0.0000000000000000e+00  -8.9926084782863056e-03 9.0145471227733934e-03 0.0000000000000000e+00  -1.3764045503216235e-02 1.3467531695481800e-02 0.0000000000000000e+00  -4.1080058776324733e-03 -4.8282231365180976e-03 0.0000000000000000e+00  0.0000000000000000e+00 0.0000000000000000e+00 0.0000000000000000e+00  -5.5578974718705348e-03 4.6947733439732589e-03 0.0000000000000000e+00  9.3955093923342022e-05 -2.1518909181531220e-02 0.0000000000000000e+00  -1.7889627914361194e-05 2.1969562260641333e-02 0.0000000000000000e+00  -7.9488429756941845e-03 -8.0897009302872708e-03 0.0000000000000000e+00  -2.1986977438446759e-02 2.1407333198044484e-02 0.0000000000000000e+00  7.6346002387030053e-03 8.6367987914656962e-03 0.0000000000000000e+00  0.0000000000000000e+00 0.0000000000000000e+00 0.0000000000000000e+00  -4.8398876146912165e-03 -4.0894445814743854e-03 0.0000000000000000e+00  1.9726976241464089e-02 -9.9846044461483954e-03 0.0000000000000000e+00  9.5709119971625362e-03 -5.4275567451091307e-03 0.0000000000000000e+00  1.0238668827473088e-02 -2.1307998234889047e-02 0.0000000000000000e+00  0.0000000000000000e+00 0.0000000000000000e+00 0.0000000000000000e+00  6.4438028618498547e-03 6.5150620404576653e-03 0.0000000000000000e+00  0.0000000000000000e+00 0.0000000000000000e+00 0.0000000000000000e+00  -9.0943016228506660e-03 5.6811839166302268e-03 0.0000000000000000e+00  2.1878002994327881e-02 2.1408267904616408e-02 0.0000000000000000e+00  6.1783818515330144e-03 -6.7143606697523716e-03 0.0000000000000000e+00  1.2865686069768434e-02 -1.3062546370491429e-02 0.0000000000000000e+00  5.3812641728286379e-03 2.0677538904427615e-02 0.0000000000000000e+00  -1.0443750577082928e-02 1.9643862839016816e-02 0.0000000000000000e+00  -1.9978024003122170e-02 -1.7023987693652976e-02 0.0000000000000000e+00  0.0000000000000000e+00 0.0000000000000000e+00 0.0000000000000000e+00  -1.9407233619599906e-02 1.7319053718279919e-02 0.0000000000000000e+00  0.0000000000000000e+00 0.0000000000000000e+00 0.0000000000000000e+00  0.0000000000000000e+00 0.0000000000000000e+00 0.0000000000000000e+00  -1.3236082850791036e-02 